# vtk DataFile Version 3.0
Jacobi solution
ASCII
DATASET STRUCTURED_GRID
DIMENSIONS 128 34 1
POINTS 4352 float
0 0.244094 0
0.00787402 0.244094 0
0.015748 0.244094 0
0.023622 0.244094 0
0.0314961 0.244094 0
0.0393701 0.244094 0
0.0472441 0.244094 0
0.0551181 0.244094 0
0.0629921 0.244094 0
0.0708661 0.244094 0
0.0787402 0.244094 0
0.0866142 0.244094 0
0.0944882 0.244094 0
0.102362 0.244094 0
0.110236 0.244094 0
0.11811 0.244094 0
0.125984 0.244094 0
0.133858 0.244094 0
0.141732 0.244094 0
0.149606 0.244094 0
0.15748 0.244094 0
0.165354 0.244094 0
0.173228 0.244094 0
0.181102 0.244094 0
0.188976 0.244094 0
0.19685 0.244094 0
0.204724 0.244094 0
0.212598 0.244094 0
0.220472 0.244094 0
0.228346 0.244094 0
0.23622 0.244094 0
0.244094 0.244094 0
0.251969 0.244094 0
0.259843 0.244094 0
0.267717 0.244094 0
0.275591 0.244094 0
0.283465 0.244094 0
0.291339 0.244094 0
0.299213 0.244094 0
0.307087 0.244094 0
0.314961 0.244094 0
0.322835 0.244094 0
0.330709 0.244094 0
0.338583 0.244094 0
0.346457 0.244094 0
0.354331 0.244094 0
0.362205 0.244094 0
0.370079 0.244094 0
0.377953 0.244094 0
0.385827 0.244094 0
0.393701 0.244094 0
0.401575 0.244094 0
0.409449 0.244094 0
0.417323 0.244094 0
0.425197 0.244094 0
0.433071 0.244094 0
0.440945 0.244094 0
0.448819 0.244094 0
0.456693 0.244094 0
0.464567 0.244094 0
0.472441 0.244094 0
0.480315 0.244094 0
0.488189 0.244094 0
0.496063 0.244094 0
0.503937 0.244094 0
0.511811 0.244094 0
0.519685 0.244094 0
0.527559 0.244094 0
0.535433 0.244094 0
0.543307 0.244094 0
0.551181 0.244094 0
0.559055 0.244094 0
0.566929 0.244094 0
0.574803 0.244094 0
0.582677 0.244094 0
0.590551 0.244094 0
0.598425 0.244094 0
0.606299 0.244094 0
0.614173 0.244094 0
0.622047 0.244094 0
0.629921 0.244094 0
0.637795 0.244094 0
0.645669 0.244094 0
0.653543 0.244094 0
0.661417 0.244094 0
0.669291 0.244094 0
0.677165 0.244094 0
0.685039 0.244094 0
0.692913 0.244094 0
0.700787 0.244094 0
0.708661 0.244094 0
0.716535 0.244094 0
0.724409 0.244094 0
0.732283 0.244094 0
0.740157 0.244094 0
0.748031 0.244094 0
0.755906 0.244094 0
0.76378 0.244094 0
0.771654 0.244094 0
0.779528 0.244094 0
0.787402 0.244094 0
0.795276 0.244094 0
0.80315 0.244094 0
0.811024 0.244094 0
0.818898 0.244094 0
0.826772 0.244094 0
0.834646 0.244094 0
0.84252 0.244094 0
0.850394 0.244094 0
0.858268 0.244094 0
0.866142 0.244094 0
0.874016 0.244094 0
0.88189 0.244094 0
0.889764 0.244094 0
0.897638 0.244094 0
0.905512 0.244094 0
0.913386 0.244094 0
0.92126 0.244094 0
0.929134 0.244094 0
0.937008 0.244094 0
0.944882 0.244094 0
0.952756 0.244094 0
0.96063 0.244094 0
0.968504 0.244094 0
0.976378 0.244094 0
0.984252 0.244094 0
0.992126 0.244094 0
1 0.244094 0
0 0.251969 0
0.00787402 0.251969 0
0.015748 0.251969 0
0.023622 0.251969 0
0.0314961 0.251969 0
0.0393701 0.251969 0
0.0472441 0.251969 0
0.0551181 0.251969 0
0.0629921 0.251969 0
0.0708661 0.251969 0
0.0787402 0.251969 0
0.0866142 0.251969 0
0.0944882 0.251969 0
0.102362 0.251969 0
0.110236 0.251969 0
0.11811 0.251969 0
0.125984 0.251969 0
0.133858 0.251969 0
0.141732 0.251969 0
0.149606 0.251969 0
0.15748 0.251969 0
0.165354 0.251969 0
0.173228 0.251969 0
0.181102 0.251969 0
0.188976 0.251969 0
0.19685 0.251969 0
0.204724 0.251969 0
0.212598 0.251969 0
0.220472 0.251969 0
0.228346 0.251969 0
0.23622 0.251969 0
0.244094 0.251969 0
0.251969 0.251969 0
0.259843 0.251969 0
0.267717 0.251969 0
0.275591 0.251969 0
0.283465 0.251969 0
0.291339 0.251969 0
0.299213 0.251969 0
0.307087 0.251969 0
0.314961 0.251969 0
0.322835 0.251969 0
0.330709 0.251969 0
0.338583 0.251969 0
0.346457 0.251969 0
0.354331 0.251969 0
0.362205 0.251969 0
0.370079 0.251969 0
0.377953 0.251969 0
0.385827 0.251969 0
0.393701 0.251969 0
0.401575 0.251969 0
0.409449 0.251969 0
0.417323 0.251969 0
0.425197 0.251969 0
0.433071 0.251969 0
0.440945 0.251969 0
0.448819 0.251969 0
0.456693 0.251969 0
0.464567 0.251969 0
0.472441 0.251969 0
0.480315 0.251969 0
0.488189 0.251969 0
0.496063 0.251969 0
0.503937 0.251969 0
0.511811 0.251969 0
0.519685 0.251969 0
0.527559 0.251969 0
0.535433 0.251969 0
0.543307 0.251969 0
0.551181 0.251969 0
0.559055 0.251969 0
0.566929 0.251969 0
0.574803 0.251969 0
0.582677 0.251969 0
0.590551 0.251969 0
0.598425 0.251969 0
0.606299 0.251969 0
0.614173 0.251969 0
0.622047 0.251969 0
0.629921 0.251969 0
0.637795 0.251969 0
0.645669 0.251969 0
0.653543 0.251969 0
0.661417 0.251969 0
0.669291 0.251969 0
0.677165 0.251969 0
0.685039 0.251969 0
0.692913 0.251969 0
0.700787 0.251969 0
0.708661 0.251969 0
0.716535 0.251969 0
0.724409 0.251969 0
0.732283 0.251969 0
0.740157 0.251969 0
0.748031 0.251969 0
0.755906 0.251969 0
0.76378 0.251969 0
0.771654 0.251969 0
0.779528 0.251969 0
0.787402 0.251969 0
0.795276 0.251969 0
0.80315 0.251969 0
0.811024 0.251969 0
0.818898 0.251969 0
0.826772 0.251969 0
0.834646 0.251969 0
0.84252 0.251969 0
0.850394 0.251969 0
0.858268 0.251969 0
0.866142 0.251969 0
0.874016 0.251969 0
0.88189 0.251969 0
0.889764 0.251969 0
0.897638 0.251969 0
0.905512 0.251969 0
0.913386 0.251969 0
0.92126 0.251969 0
0.929134 0.251969 0
0.937008 0.251969 0
0.944882 0.251969 0
0.952756 0.251969 0
0.96063 0.251969 0
0.968504 0.251969 0
0.976378 0.251969 0
0.984252 0.251969 0
0.992126 0.251969 0
1 0.251969 0
0 0.259843 0
0.00787402 0.259843 0
0.015748 0.259843 0
0.023622 0.259843 0
0.0314961 0.259843 0
0.0393701 0.259843 0
0.0472441 0.259843 0
0.0551181 0.259843 0
0.0629921 0.259843 0
0.0708661 0.259843 0
0.0787402 0.259843 0
0.0866142 0.259843 0
0.0944882 0.259843 0
0.102362 0.259843 0
0.110236 0.259843 0
0.11811 0.259843 0
0.125984 0.259843 0
0.133858 0.259843 0
0.141732 0.259843 0
0.149606 0.259843 0
0.15748 0.259843 0
0.165354 0.259843 0
0.173228 0.259843 0
0.181102 0.259843 0
0.188976 0.259843 0
0.19685 0.259843 0
0.204724 0.259843 0
0.212598 0.259843 0
0.220472 0.259843 0
0.228346 0.259843 0
0.23622 0.259843 0
0.244094 0.259843 0
0.251969 0.259843 0
0.259843 0.259843 0
0.267717 0.259843 0
0.275591 0.259843 0
0.283465 0.259843 0
0.291339 0.259843 0
0.299213 0.259843 0
0.307087 0.259843 0
0.314961 0.259843 0
0.322835 0.259843 0
0.330709 0.259843 0
0.338583 0.259843 0
0.346457 0.259843 0
0.354331 0.259843 0
0.362205 0.259843 0
0.370079 0.259843 0
0.377953 0.259843 0
0.385827 0.259843 0
0.393701 0.259843 0
0.401575 0.259843 0
0.409449 0.259843 0
0.417323 0.259843 0
0.425197 0.259843 0
0.433071 0.259843 0
0.440945 0.259843 0
0.448819 0.259843 0
0.456693 0.259843 0
0.464567 0.259843 0
0.472441 0.259843 0
0.480315 0.259843 0
0.488189 0.259843 0
0.496063 0.259843 0
0.503937 0.259843 0
0.511811 0.259843 0
0.519685 0.259843 0
0.527559 0.259843 0
0.535433 0.259843 0
0.543307 0.259843 0
0.551181 0.259843 0
0.559055 0.259843 0
0.566929 0.259843 0
0.574803 0.259843 0
0.582677 0.259843 0
0.590551 0.259843 0
0.598425 0.259843 0
0.606299 0.259843 0
0.614173 0.259843 0
0.622047 0.259843 0
0.629921 0.259843 0
0.637795 0.259843 0
0.645669 0.259843 0
0.653543 0.259843 0
0.661417 0.259843 0
0.669291 0.259843 0
0.677165 0.259843 0
0.685039 0.259843 0
0.692913 0.259843 0
0.700787 0.259843 0
0.708661 0.259843 0
0.716535 0.259843 0
0.724409 0.259843 0
0.732283 0.259843 0
0.740157 0.259843 0
0.748031 0.259843 0
0.755906 0.259843 0
0.76378 0.259843 0
0.771654 0.259843 0
0.779528 0.259843 0
0.787402 0.259843 0
0.795276 0.259843 0
0.80315 0.259843 0
0.811024 0.259843 0
0.818898 0.259843 0
0.826772 0.259843 0
0.834646 0.259843 0
0.84252 0.259843 0
0.850394 0.259843 0
0.858268 0.259843 0
0.866142 0.259843 0
0.874016 0.259843 0
0.88189 0.259843 0
0.889764 0.259843 0
0.897638 0.259843 0
0.905512 0.259843 0
0.913386 0.259843 0
0.92126 0.259843 0
0.929134 0.259843 0
0.937008 0.259843 0
0.944882 0.259843 0
0.952756 0.259843 0
0.96063 0.259843 0
0.968504 0.259843 0
0.976378 0.259843 0
0.984252 0.259843 0
0.992126 0.259843 0
1 0.259843 0
0 0.267717 0
0.00787402 0.267717 0
0.015748 0.267717 0
0.023622 0.267717 0
0.0314961 0.267717 0
0.0393701 0.267717 0
0.0472441 0.267717 0
0.0551181 0.267717 0
0.0629921 0.267717 0
0.0708661 0.267717 0
0.0787402 0.267717 0
0.0866142 0.267717 0
0.0944882 0.267717 0
0.102362 0.267717 0
0.110236 0.267717 0
0.11811 0.267717 0
0.125984 0.267717 0
0.133858 0.267717 0
0.141732 0.267717 0
0.149606 0.267717 0
0.15748 0.267717 0
0.165354 0.267717 0
0.173228 0.267717 0
0.181102 0.267717 0
0.188976 0.267717 0
0.19685 0.267717 0
0.204724 0.267717 0
0.212598 0.267717 0
0.220472 0.267717 0
0.228346 0.267717 0
0.23622 0.267717 0
0.244094 0.267717 0
0.251969 0.267717 0
0.259843 0.267717 0
0.267717 0.267717 0
0.275591 0.267717 0
0.283465 0.267717 0
0.291339 0.267717 0
0.299213 0.267717 0
0.307087 0.267717 0
0.314961 0.267717 0
0.322835 0.267717 0
0.330709 0.267717 0
0.338583 0.267717 0
0.346457 0.267717 0
0.354331 0.267717 0
0.362205 0.267717 0
0.370079 0.267717 0
0.377953 0.267717 0
0.385827 0.267717 0
0.393701 0.267717 0
0.401575 0.267717 0
0.409449 0.267717 0
0.417323 0.267717 0
0.425197 0.267717 0
0.433071 0.267717 0
0.440945 0.267717 0
0.448819 0.267717 0
0.456693 0.267717 0
0.464567 0.267717 0
0.472441 0.267717 0
0.480315 0.267717 0
0.488189 0.267717 0
0.496063 0.267717 0
0.503937 0.267717 0
0.511811 0.267717 0
0.519685 0.267717 0
0.527559 0.267717 0
0.535433 0.267717 0
0.543307 0.267717 0
0.551181 0.267717 0
0.559055 0.267717 0
0.566929 0.267717 0
0.574803 0.267717 0
0.582677 0.267717 0
0.590551 0.267717 0
0.598425 0.267717 0
0.606299 0.267717 0
0.614173 0.267717 0
0.622047 0.267717 0
0.629921 0.267717 0
0.637795 0.267717 0
0.645669 0.267717 0
0.653543 0.267717 0
0.661417 0.267717 0
0.669291 0.267717 0
0.677165 0.267717 0
0.685039 0.267717 0
0.692913 0.267717 0
0.700787 0.267717 0
0.708661 0.267717 0
0.716535 0.267717 0
0.724409 0.267717 0
0.732283 0.267717 0
0.740157 0.267717 0
0.748031 0.267717 0
0.755906 0.267717 0
0.76378 0.267717 0
0.771654 0.267717 0
0.779528 0.267717 0
0.787402 0.267717 0
0.795276 0.267717 0
0.80315 0.267717 0
0.811024 0.267717 0
0.818898 0.267717 0
0.826772 0.267717 0
0.834646 0.267717 0
0.84252 0.267717 0
0.850394 0.267717 0
0.858268 0.267717 0
0.866142 0.267717 0
0.874016 0.267717 0
[...]
POINT_DATA 4352
SCALARS u double
LOOKUP_TABLE default
0
0.0499056
0.0996891
0.149229
0.198403
0.247092
0.295176
0.342538
0.389061
0.434633
0.47914
0.522476
0.564532
0.605208
0.644402
0.682019
0.717967
0.752158
0.784509
0.814939
0.843376
0.869748
0.893992
0.916049
0.935863
0.953388
0.968579
0.9814
0.99182
0.999812
1.00536
1.00844
1.00906
1.00721
1.00289
0.996121
0.986912
0.975288
0.961278
0.944915
0.92624
0.905298
0.88214
0.856824
0.829411
0.799969
0.768569
0.735288
0.700207
0.663413
0.624996
0.585049
0.54367
0.500961
0.457026
0.411973
0.365911
0.318954
0.271217
0.222815
0.173869
0.124497
0.0748202
0.0249604
-0.0249604
-0.0748202
-0.124497
-0.173869
-0.222815
-0.271217
-0.318954
-0.365911
-0.411973
-0.457026
-0.500961
-0.54367
-0.585049
-0.624996
-0.663413
-0.700207
-0.735288
-0.768569
-0.799969
-0.829411
-0.856824
-0.88214
-0.905298
-0.92624
-0.944915
-0.961278
-0.975288
-0.986912
-0.996121
-1.00289
-1.00721
-1.00906
-1.00844
-1.00536
-0.999812
-0.99182
-0.9814
-0.968579
-0.953388
-0.935863
-0.916049
-0.893992
-0.869748
-0.843376
-0.814939
-0.784509
-0.752158
-0.717967
-0.682019
-0.644402
-0.605208
-0.564532
-0.522476
-0.47914
-0.434633
-0.389061
-0.342538
-0.295176
-0.247092
-0.198403
-0.149229
-0.0996891
-0.0499056
0
0
0.0499106
0.099699
0.149243
0.198423
0.247116
0.295205
0.342572
0.3891
0.434676
0.479188
0.522528
0.564589
0.605268
0.644466
0.682087
0.718039
0.752233
0.784587
0.815021
0.84346
0.869835
0.894082
0.91614
0.935957
0.953483
0.968676
0.981498
0.991918
0.999912
1.00546
1.00854
1.00916
1.00731
1.00299
0.99622
0.98701
0.975385
0.961373
0.945009
0.926332
0.905388
0.882228
0.85691
0.829494
0.800049
0.768645
0.735361
0.700277
0.663479
0.625058
0.585107
0.543725
0.501011
0.457072
0.412014
0.365948
0.318986
0.271244
0.222838
0.173886
0.124509
0.0748277
0.0249629
-0.0249629
-0.0748277
-0.124509
-0.173886
-0.222838
-0.271244
-0.318986
-0.365948
-0.412014
-0.457072
-0.501011
-0.543725
-0.585107
-0.625058
-0.663479
-0.700277
-0.735361
-0.768645
-0.800049
-0.829494
-0.85691
-0.882228
-0.905388
-0.926332
-0.945009
-0.961373
-0.975385
-0.98701
-0.99622
-1.00299
-1.00731
-1.00916
-1.00854
-1.00546
-0.999912
-0.991918
-0.981498
-0.968676
-0.953483
-0.935957
-0.91614
-0.894082
-0.869835
-0.84346
-0.815021
-0.784587
-0.752233
-0.718039
-0.682087
-0.644466
-0.605268
-0.564589
-0.522528
-0.479188
-0.434676
-0.3891
-0.342572
-0.295205
-0.247116
-0.198423
-0.149243
-0.099699
-0.0499106
0
0
0.0497956
0.0994694
0.1489
0.197966
0.246547
0.294525
0.341783
0.388204
0.433675
0.478085
0.521324
0.563288
0.603874
0.642982
0.680516
0.716385
0.750501
0.78278
0.813144
0.841517
0.867832
0.892023
0.91403
0.933801
0.951287
0.966445
0.979238
0.989634
0.997609
1.00314
1.00622
1.00684
1.00499
1.00068
0.993925
0.984737
0.973139
0.959159
0.942833
0.924198
0.903303
0.880196
0.854936
0.827584
0.798206
0.766875
0.733667
0.698664
0.661951
0.623619
0.58376
0.542472
0.499857
0.456019
0.411065
0.365105
0.318251
0.270619
0.222324
0.173486
0.124223
0.0746553
0.0249054
-0.0249054
-0.0746553
-0.124223
-0.173486
-0.222324
-0.270619
-0.318251
-0.365105
-0.411065
-0.456019
-0.499857
-0.542472
-0.58376
-0.623619
-0.661951
-0.698664
-0.733667
-0.766875
-0.798206
-0.827584
-0.854936
-0.880196
-0.903303
-0.924198
-0.942833
-0.959159
-0.973139
-0.984737
-0.993925
-1.00068
-1.00499
-1.00684
-1.00622
-1.00314
-0.997609
-0.989634
-0.979238
-0.966445
-0.951287
-0.933801
-0.91403
-0.892023
-0.867832
-0.841517
-0.813144
-0.78278
-0.750501
-0.716385
-0.680516
-0.642982
-0.603874
-0.563288
-0.521324
-0.478085
-0.433675
-0.388204
-0.341783
-0.294525
-0.246547
-0.197966
-0.1489
-0.0994694
-0.0497956
0
0
0.0495609
0.0990006
0.148198
0.197033
0.245385
0.293137
0.340172
0.386374
0.431631
0.475831
0.518867
0.560634
0.601028
0.639951
0.677309
0.713009
0.746964
0.779091
0.809311
0.837551
0.863742
0.887819
0.909723
0.9294
0.946804
0.96189
0.974623
0.98497
0.992907
0.998414
1.00148
1.00209
1.00025
0.995965
0.989241
0.980096
0.968553
0.954639
0.938389
0.919843
0.899046
0.876048
0.850907
0.823683
0.794444
0.763261
0.73021
0.695371
0.658832
0.62068
0.581009
0.539916
0.497502
0.45387
0.409128
0.363384
0.316752
0.269344
0.221277
0.172668
0.123637
0.0743035
0.0247881
-0.0247881
-0.0743035
-0.123637
-0.172668
-0.221277
-0.269344
-0.316752
-0.363384
-0.409128
-0.45387
-0.497502
-0.539916
-0.581009
-0.62068
-0.658832
-0.695371
-0.73021
-0.763261
-0.794444
-0.823683
-0.850907
-0.876048
-0.899046
-0.919843
-0.938389
-0.954639
-0.968553
-0.980096
-0.989241
-0.995965
-1.00025
-1.00209
-1.00148
-0.998414
-0.992907
-0.98497
-0.974623
-0.96189
-0.946804
-0.9294
-0.909723
-0.887819
-0.863742
-0.837551
-0.809311
-0.779091
-0.746964
-0.713009
-0.677309
-0.639951
-0.601028
-0.560634
-0.518867
-0.475831
-0.431631
-0.386374
-0.340172
-0.293137
-0.245385
-0.197033
-0.148198
-0.0990006
-0.0495609
0
0
0.049207
0.0982936
0.14714
0.195626
0.243633
0.291044
0.337743
0.383615
0.428548
0.472433
0.515162
0.55663
0.596735
0.635381
0.672472
0.707916
0.741629
0.773527
0.803531
0.83157
0.857573
0.881478
0.903225
0.922763
0.940042
0.95502
0.967662
0.977936
0.985816
0.991284
0.994326
0.994935
0.993109
0.988852
0.982176
0.973097
0.961635
0.947821
0.931687
0.913273
0.892625
0.869792
0.84483
0.817801
0.78877
0.75781
0.724995
0.690405
0.654126
0.616247
0.576859
0.53606
0.493949
0.450629
0.406206
0.360789
0.314489
0.26742
0.219696
0.171435
0.122754
0.0737728
0.024611
-0.024611
-0.0737728
-0.122754
-0.171435
-0.219696
-0.26742
-0.314489
-0.360789
-0.406206
-0.450629
-0.493949
-0.53606
-0.576859
-0.616247
-0.654126
-0.690405
-0.724995
-0.75781
-0.78877
-0.817801
-0.84483
-0.869792
-0.892625
-0.913273
-0.931687
-0.947821
-0.961635
-0.973097
-0.982176
-0.988852
-0.993109
-0.994935
-0.994326
-0.991284
-0.985816
-0.977936
-0.967662
-0.95502
-0.940042
-0.922763
-0.903225
-0.881478
-0.857573
-0.83157
-0.803531
-0.773527
-0.741629
-0.707916
-0.672472
-0.635381
-0.596735
-0.55663
-0.515162
-0.472433
-0.428548
-0.383615
-0.337743
-0.291044
-0.243633
-0.195626
-0.14714
-0.0982936
-0.049207
0
0
0.0487345
0.0973498
0.145727
0.193747
0.241293
0.288249
0.3345
0.379931
0.424433
0.467897
0.510215
0.551285
0.591006
0.62928
0.666015
0.701119
0.734508
0.766099
0.795816
0.823585
0.849339
0.873014
0.894553
0.913903
0.931016
0.945851
0.958371
0.968546
0.97635
0.981766
0.984779
0.985382
0.983573
0.979358
0.972746
0.963753
0.952402
0.93872
0.922741
0.904504
0.884054
0.86144
0.836718
0.809948
0.781197
0.750533
0.718033
0.683776
0.647846
0.61033
0.57132
0.530913
0.489206
0.446302
0.402306
0.357325
0.31147
0.264852
0.217587
0.169789
0.121575
0.0730645
0.0243747
-0.0243747
-0.0730645
-0.121575
-0.169789
-0.217587
-0.264852
-0.31147
-0.357325
-0.402306
-0.446302
-0.489206
-0.530913
-0.57132
-0.61033
-0.647846
-0.683776
-0.718033
-0.750533
-0.781197
-0.809948
-0.836718
-0.86144
-0.884054
-0.904504
-0.922741
-0.93872
-0.952402
-0.963753
-0.972746
-0.979358
-0.983573
-0.985382
-0.984779
-0.981766
-0.97635
-0.968546
-0.958371
-0.945851
-0.931016
-0.913903
-0.894553
-0.873014
-0.849339
-0.823585
-0.795816
-0.766099
-0.734508
-0.701119
-0.666015
-0.62928
-0.591006
-0.551285
-0.510215
-0.467897
-0.424433
-0.379931
-0.3345
-0.288249
-0.241293
-0.193747
-0.145727
-0.0973498
-0.0487345
0
0
0.0481446
0.0961713
0.143963
0.191402
0.238373
0.28476
0.33045
0.375332
0.419296
0.462233
0.504039
0.544612
0.583852
0.621663
0.657952
0.692632
0.725617
0.756826
0.786183
0.813616
0.839057
0.862446
0.883724
0.90284
0.919746
0.934401
0.94677
0.956821
0.964531
0.969881
0.972858
0.973453
0.971667
0.967502
0.96097
0.952087
0.940873
0.927357
0.911571
0.893555
0.873352
0.851012
0.826589
0.800144
0.77174
0.741448
0.709341
0.675499
0.640003
0.602942
0.564404
0.524486
0.483284
0.440899
0.397436
0.352999
0.307699
0.261646
0.214953
0.167734
0.120104
0.07218
0.0240797
-0.0240797
-0.07218
-0.120104
-0.167734
-0.214953
-0.261646
-0.307699
-0.352999
-0.397436
-0.440899
-0.483284
-0.524486
-0.564404
-0.602942
-0.640003
-0.675499
-0.709341
-0.741448
-0.77174
-0.800144
-0.826589
-0.851012
-0.873352
-0.893555
-0.911571
-0.927357
-0.940873
-0.952087
-0.96097
-0.967502
-0.971667
-0.973453
-0.972858
-0.969881
-0.964531
-0.956821
-0.94677
-0.934401
-0.919746
-0.90284
-0.883724
-0.862446
-0.839057
-0.813616
-0.786183
-0.756826
-0.725617
-0.692632
-0.657952
-0.621663
-0.583852
-0.544612
-0.504039
-0.462233
-0.419296
-0.375332
-0.33045
-0.28476
-0.238373
-0.191402
-0.143963
-0.0961713
-0.0481446
0
0
0.0474385
0.0947609
0.141851
0.188595
0.234877
0.280584
0.325604
0.369828
0.413146
0.455454
0.496647
0.536625
0.575289
0.612546
0.648303
0.682474
0.714975
0.745727
0.774653
0.801684
0.826752
0.849798
0.870764
0.889599
0.906257
0.920697
0.932885
0.942789
0.950386
0.955658
0.95859
0.959177
0.957417
0.953314
0.946877
0.938124
0.927075
0.913757
0.898203
0.880451
0.860544
0.838532
0.814467
0.788409
0.760422
0.730574
0.698939
0.665592
0.630617
0.594099
0.556127
0.516794
0.476196
0.434433
0.391607
0.347822
0.303187
0.257809
0.211801
0.165274
0.118342
0.0711215
0.0237265
-0.0237265
-0.0711215
-0.118342
-0.165274
-0.211801
-0.257809
-0.303187
-0.347822
-0.391607
-0.434433
-0.476196
-0.516794
-0.556127
-0.594099
-0.630617
-0.665592
-0.698939
-0.730574
-0.760422
-0.788409
-0.814467
-0.838532
-0.860544
-0.880451
-0.898203
-0.913757
-0.927075
-0.938124
-0.946877
-0.953314
-0.957417
-0.959177
-0.95859
-0.955658
-0.950386
-0.942789
-0.932885
-0.920697
-0.906257
-0.889599
-0.870764
-0.849798
-0.826752
-0.801684
-0.774653
-0.745727
-0.714975
-0.682474
-0.648303
-0.612546
-0.575289
-0.536625
-0.496647
-0.455454
-0.413146
-0.369828
-0.325604
-0.280584
-0.234877
-0.188595
-0.141851
-0.0947609
-0.0474385
0
0
0.046618
0.0931218
0.139398
0.185333
0.230814
0.275731
0.319972
0.363431
0.406
0.447576
0.488057
0.527343
0.565338
0.60195
0.637089
0.670669
0.702608
0.732828
0.761254
0.787817
0.812452
0.835099
0.855702
0.874212
0.890582
0.904772
0.916749
0.926482
0.933947
0.939127
0.942009
0.942586
0.940856
0.936824
0.930499
0.921897
0.911039
0.897952
0.882667
0.865222
0.845659
0.824028
0.800379
0.774772
0.747269
0.717938
0.686849
0.65408
0.61971
0.583823
0.546508
0.507855
0.467959
0.426919
0.384833
0.341806
0.297943
0.25335
0.208137
0.162415
0.116295
0.0698913
0.0233161
-0.0233161
-0.0698913
-0.116295
-0.162415
-0.208137
-0.25335
-0.297943
-0.341806
-0.384833
-0.426919
-0.467959
-0.507855
-0.546508
-0.583823
-0.61971
-0.65408
-0.686849
-0.717938
-0.747269
-0.774772
-0.800379
-0.824028
-0.845659
-0.865222
-0.882667
-0.897952
-0.911039
-0.921897
-0.930499
-0.936824
-0.940856
-0.942586
-0.942009
-0.939127
-0.933947
-0.926482
-0.916749
-0.904772
-0.890582
-0.874212
-0.855702
-0.835099
-0.812452
-0.787817
-0.761254
-0.732828
-0.702608
-0.670669
-0.637089
-0.60195
-0.565338
-0.527343
-0.488057
-0.447576
-0.406
-0.363431
-0.319972
-0.275731
-0.230814
-0.185333
-0.139398
-0.0931218
-0.046618
0
0
0.0456848
0.0912579
0.136608
0.181623
0.226194
0.270211
0.313568
0.356156
0.397874
0.438617
0.478287
0.516787
0.554022
0.589902
0.624337
0.657245
0.688545
0.718159
0.746016
0.772048
0.79619
0.818383
0.838574
0.856713
0.872755
0.886662
0.898399
0.907937
0.915253
0.92033
0.923154
0.923719
0.922024
0.918072
0.911874
0.903444
0.892803
0.879978
0.864999
0.847903
0.828732
0.807534
0.784359
0.759264
0.732312
0.703567
0.673101
0.640987
0.607305
0.572137
0.535569
0.49769
0.458593
0.418373
0.37713
0.334964
0.291979
0.248279
0.203971
0.159164
0.113968
0.0684923
0.0228494
-0.0228494
-0.0684923
-0.113968
-0.159164
-0.203971
-0.248279
-0.291979
-0.334964
-0.37713
-0.418373
-0.458593
-0.49769
-0.535569
-0.572137
-0.607305
-0.640987
-0.673101
-0.703567
-0.732312
-0.759264
-0.784359
-0.807534
-0.828732
-0.847903
-0.864999
-0.879978
-0.892803
-0.903444
-0.911874
-0.918072
-0.922024
-0.923719
-0.923154
-0.92033
-0.915253
-0.907937
-0.898399
-0.886662
-0.872755
-0.856713
-0.838574
-0.818383
-0.79619
-0.772048
-0.746016
-0.718159
-0.688545
-0.657245
-0.624337
-0.589902
-0.554022
-0.516787
-0.478287
-0.438617
-0.397874
-0.356156
-0.313568
-0.270211
-0.226194
-0.181623
-0.136608
-0.0912579
-0.0456848
0
0
0.0446413
0.0891734
0.133487
0.177475
0.221027
0.264039
0.306405
0.348021
0.388786
0.428599
0.467363
0.504983
0.541368
0.576428
0.610077
0.642233
0.672817
0.701756
0.728976
0.754413
0.778004
0.799691
0.81942
0.837145
0.852821
0.86641
0.877878
0.887198
0.894348
0.899308
0.902068
0.90262
0.900964
0.897102
0.891046
0.882808
0.872411
0.859878
0.845241
0.828536
0.809803
0.789089
0.766443
0.741922
0.715585
0.687497
0.657726
0.626346
0.593434
0.559069
0.523336
0.486322
0.448118
0.408817
0.368516
0.327313
0.28531
0.242608
0.199312
0.155529
0.111364
0.0669279
0.0223275
-0.0223275
-0.0669279
-0.111364
-0.155529
-0.199312
-0.242608
-0.28531
-0.327313
-0.368516
-0.408817
-0.448118
-0.486322
-0.523336
-0.559069
-0.593434
-0.626346
-0.657726
-0.687497
-0.715585
-0.741922
-0.766443
-0.789089
-0.809803
-0.828536
-0.845241
-0.859878
-0.872411
-0.882808
-0.891046
-0.897102
-0.900964
-0.90262
-0.902068
-0.899308
-0.894348
-0.887198
-0.877878
-0.86641
-0.852821
-0.837145
-0.81942
-0.799691
-0.778004
-0.754413
-0.728976
-0.701756
-0.672817
-0.642233
-0.610077
-0.576428
-0.541368
-0.504983
-0.467363
-0.428599
-0.388786
-0.348021
-0.306405
-0.264039
-0.221027
-0.177475
-0.133487
-0.0891734
-0.0446413
0
0
0.0434899
0.0868735
0.130044
0.172897
0.215327
0.257229
0.298502
0.339045
0.378758
0.417544
0.455308
0.491959
0.527405
0.56156
0.594341
0.625668
0.655464
0.683656
0.710174
0.734955
0.757937
0.779065
0.798286
0.815553
0.830824
0.844063
0.855236
0.864316
0.87128
0.876113
0.878802
0.87934
0.877726
0.873964
0.868064
0.860039
0.849909
0.8377
0.823441
0.807166
0.788917
0.768736
0.746675
0.722786
0.697128
0.669765
0.640762
0.610192
0.578128
0.544649
0.509838
0.473778
0.43656
0.398273
0.359011
0.318871
0.277951
0.23635
0.194171
0.151517
0.108492
0.0652017
0.0217516
-0.0217516
-0.0652017
-0.108492
-0.151517
-0.194171
-0.23635
-0.277951
-0.318871
-0.359011
-0.398273
-0.43656
-0.473778
-0.509838
-0.544649
-0.578128
-0.610192
-0.640762
-0.669765
-0.697128
-0.722786
-0.746675
-0.768736
-0.788917
-0.807166
-0.823441
-0.8377
-0.849909
-0.860039
-0.868064
-0.873964
-0.877726
-0.87934
-0.878802
-0.876113
-0.87128
-0.864316
-0.855236
-0.844063
-0.830824
-0.815553
-0.798286
-0.779065
-0.757937
-0.734955
-0.710174
-0.683656
-0.655464
-0.625668
-0.594341
-0.56156
-0.527405
-0.491959
-0.455308
-0.417544
-0.378758
-0.339045
-0.298502
-0.257229
-0.215327
-0.172897
-0.130044
-0.0868735
-0.0434899
0
0
0.0422334
0.0843634
0.126287
0.167902
0.209105
0.249797
0.289878
0.329249
0.367815
0.40548
0.442153
0.477744
0.512166
0.545335
0.577169
0.607591
0.636525
0.663903
0.689655
0.71372
0.736038
0.756555
0.77522
0.791989
0.806819
0.819675
0.830525
0.839343
0.846106
0.850799
0.85341
0.853933
0.852365
0.848712
0.842982
0.835189
0.825353
0.813496
0.799649
0.783844
0.766122
0.746525
0.725101
0.701902
0.676986
0.650413
0.622248
0.592561
0.561424
0.528912
0.495107
0.460089
0.423946
0.386766
0.348638
0.309658
0.26992
0.229521
0.188561
0.147139
0.105357
0.0633178
0.0211232
-0.0211232
-0.0633178
-0.105357
-0.147139
-0.188561
-0.229521
-0.26992
-0.309658
-0.348638
-0.386766
-0.423946
-0.460089
-0.495107
-0.528912
-0.561424
-0.592561
-0.622248
-0.650413
-0.676986
-0.701902
-0.725101
-0.746525
-0.766122
-0.783844
-0.799649
-0.813496
-0.825353
-0.835189
-0.842982
-0.848712
-0.852365
-0.853933
-0.85341
-0.850799
-0.846106
-0.839343
-0.830525
-0.819675
-0.806819
-0.791989
-0.77522
-0.756555
-0.736038
-0.71372
-0.689655
-0.663903
-0.636525
-0.607591
-0.577169
-0.545335
-0.512166
-0.477744
-0.442153
-0.40548
-0.367815
-0.329249
-0.289878
-0.249797
-0.209105
-0.167902
-0.126287
-0.0843634
-0.0422334
0
0
0.0408746
0.0816492
0.122224
0.1625
0.202378
0.241761
0.280552
0.318656
0.355981
0.392435
0.427928
0.462374
0.495689
0.52779
0.5586
0.588043
0.616047
0.642543
0.667467
0.690758
0.712358
0.732215
0.75028
0.766509
0.780862
0.793304
0.803805
0.812339
0.818885
0.823427
0.825954
0.82646
0.824943
0.821407
0.815862
0.80832
0.798799
0.787324
0.773922
0.758627
0.741474
0.722508
0.701773
0.67932
0.655206
0.629488
0.602229
0.573497
0.543361
0.511896
0.479178
0.445287
0.410307
0.374322
0.337422
0.299696
0.261236
0.222137
0.182495
0.142405
0.101968
0.0612807
0.0204436
-0.0204436
-0.0612807
-0.101968
-0.142405
-0.182495
-0.222137
-0.261236
-0.299696
-0.337422
-0.374322
-0.410307
-0.445287
-0.479178
-0.511896
-0.543361
-0.573497
-0.602229
-0.629488
-0.655206
-0.67932
-0.701773
-0.722508
-0.741474
-0.758627
-0.773922
-0.787324
-0.798799
-0.80832
-0.815862
-0.821407
-0.824943
-0.82646
-0.825954
-0.823427
-0.818885
-0.812339
-0.803805
-0.793304
-0.780862
-0.766509
-0.75028
-0.732215
-0.712358
-0.690758
-0.667467
-0.642543
-0.616047
-0.588043
-0.5586
-0.52779
-0.495689
-0.462374
-0.427928
-0.392435
-0.355981
-0.318656
-0.280552
-0.241761
-0.202378
-0.1625
-0.122224
-0.0816492
-0.0408746
0
0
0.039417
0.0787375
0.117865
0.156705
0.195161
0.233139
0.270547
0.307292
0.343286
0.37844
0.412667
0.445885
0.478012
0.508968
0.53868
0.567073
0.594078
0.619629
0.643664
0.666124
0.686954
0.706103
0.723524
0.739174
0.753015
0.765014
0.77514
0.78337
0.789682
0.794062
0.796499
0.796987
0.795524
0.792115
0.786767
0.779493
0.770313
0.759247
0.746323
0.731573
0.715032
0.696742
0.676746
0.655095
0.63184
0.607039
0.580753
0.553045
0.523984
0.493641
0.46209
0.429408
0.395675
0.360973
0.325389
0.289008
0.25192
0.214215
0.175987
0.137327
0.0983315
0.0590953
0.0197145
-0.0197145
-0.0590953
-0.0983315
-0.137327
-0.175987
-0.214215
-0.25192
-0.289008
-0.325389
-0.360973
-0.395675
-0.429408
-0.46209
-0.493641
-0.523984
-0.553045
-0.580753
-0.607039
-0.63184
-0.655095
-0.676746
-0.696742
-0.715032
-0.731573
-0.746323
-0.759247
-0.770313
-0.779493
-0.786767
-0.792115
-0.795524
-0.796987
-0.796499
-0.794062
-0.789682
-0.78337
-0.77514
-0.765014
-0.753015
-0.739174
-0.723524
-0.706103
-0.686954
-0.666124
-0.643664
-0.619629
-0.594078
-0.567073
-0.53868
-0.508968
-0.478012
-0.445885
-0.412667
-0.37844
-0.343286
-0.307292
-0.270547
-0.233139
-0.195161
-0.156705
-0.117865
-0.0787375
-0.039417
0
0
0.0378639
0.0756351
0.113221
0.15053
0.187471
0.223953
0.259887
0.295185
0.32976
0.363529
0.396408
0.428317
0.459177
0.488914
0.517455
0.544729
0.57067
0.595215
0.618303
0.639878
0.659887
0.678281
0.695016
0.710049
0.723345
0.734871
0.744599
0.752504
0.758568
0.762775
0.765116
0.765584
0.764179
0.760904
0.755767
0.74878
0.739961
0.729331
0.716917
0.702748
0.686859
0.669289
0.650081
0.629283
0.606945
0.583121
0.55787
0.531254
0.503339
0.474191
0.443883
0.412488
0.380085
0.346751
0.312568
0.277621
0.241994
0.205775
0.169052
0.131916
0.0944571
0.0567669
0.0189377
-0.0189377
-0.0567669
-0.0944571
-0.131916
-0.169052
-0.205775
-0.241994
-0.277621
-0.312568
-0.346751
-0.380085
-0.412488
-0.443883
-0.474191
-0.503339
-0.531254
-0.55787
-0.583121
-0.606945
-0.629283
-0.650081
-0.669289
-0.686859
-0.702748
-0.716917
-0.729331
-0.739961
-0.74878
-0.755767
-0.760904
-0.764179
-0.765584
-0.765116
-0.762775
-0.758568
-0.752504
-0.744599
-0.734871
-0.723345
-0.710049
-0.695016
-0.678281
-0.659887
-0.639878
-0.618303
-0.595215
-0.57067
-0.544729
-0.517455
-0.488914
-0.459177
-0.428317
-0.396408
-0.363529
-0.32976
-0.295185
-0.259887
-0.223953
-0.187471
-0.15053
-0.113221
-0.0756351
-0.0378639
0
0
0.0362191
0.0723496
0.108303
0.143991
0.179327
0.214225
0.248598
0.282362
0.315436
0.347737
0.379188
0.409711
0.439231
0.467676
0.494977
0.521066
0.545881
0.569359
0.591444
0.612082
0.631222
0.648817
0.664825
0.679205
0.691924
0.702949
0.712254
0.719816
0.725616
0.729641
0.73188
0.732328
0.730984
0.727851
0.722937
0.716254
0.707818
0.69765
0.685774
0.672221
0.657022
0.640216
0.621842
0.601947
0.580579
0.557791
0.533637
0.508177
0.481474
0.453592
0.424601
0.39457
0.363574
0.331688
0.29899
0.265561
0.231482
0.196836
0.161709
0.126186
0.0903539
0.054301
0.0181151
-0.0181151
-0.054301
-0.0903539
-0.126186
-0.161709
-0.196836
-0.231482
-0.265561
-0.29899
-0.331688
-0.363574
-0.39457
-0.424601
-0.453592
-0.481474
-0.508177
-0.533637
-0.557791
-0.580579
-0.601947
-0.621842
-0.640216
-0.657022
-0.672221
-0.685774
-0.69765
-0.707818