# vtk DataFile Version 3.0
Jacobi solution
ASCII
DATASET STRUCTURED_GRID
DIMENSIONS 128 34 1
POINTS 4352 float
0 -0.00787402 0
0.00787402 -0.00787402 0
0.015748 -0.00787402 0
0.023622 -0.00787402 0
0.0314961 -0.00787402 0
0.0393701 -0.00787402 0
0.0472441 -0.00787402 0
0.0551181 -0.00787402 0
0.0629921 -0.00787402 0
0.0708661 -0.00787402 0
0.0787402 -0.00787402 0
0.0866142 -0.00787402 0
0.0944882 -0.00787402 0
0.102362 -0.00787402 0
0.110236 -0.00787402 0
0.11811 -0.00787402 0
0.125984 -0.00787402 0
0.133858 -0.00787402 0
0.141732 -0.00787402 0
0.149606 -0.00787402 0
0.15748 -0.00787402 0
0.165354 -0.00787402 0
0.173228 -0.00787402 0
0.181102 -0.00787402 0
0.188976 -0.00787402 0
0.19685 -0.00787402 0
0.204724 -0.00787402 0
0.212598 -0.00787402 0
0.220472 -0.00787402 0
0.228346 -0.00787402 0
0.23622 -0.00787402 0
0.244094 -0.00787402 0
0.251969 -0.00787402 0
0.259843 -0.00787402 0
0.267717 -0.00787402 0
0.275591 -0.00787402 0
0.283465 -0.00787402 0
0.291339 -0.00787402 0
0.299213 -0.00787402 0
0.307087 -0.00787402 0
0.314961 -0.00787402 0
0.322835 -0.00787402 0
0.330709 -0.00787402 0
0.338583 -0.00787402 0
0.346457 -0.00787402 0
0.354331 -0.00787402 0
0.362205 -0.00787402 0
0.370079 -0.00787402 0
0.377953 -0.00787402 0
0.385827 -0.00787402 0
0.393701 -0.00787402 0
0.401575 -0.00787402 0
0.409449 -0.00787402 0
0.417323 -0.00787402 0
0.425197 -0.00787402 0
0.433071 -0.00787402 0
0.440945 -0.00787402 0
0.448819 -0.00787402 0
0.456693 -0.00787402 0
0.464567 -0.00787402 0
0.472441 -0.00787402 0
0.480315 -0.00787402 0
0.488189 -0.00787402 0
0.496063 -0.00787402 0
0.503937 -0.00787402 0
0.511811 -0.00787402 0
0.519685 -0.00787402 0
0.527559 -0.00787402 0
0.535433 -0.00787402 0
0.543307 -0.00787402 0
0.551181 -0.00787402 0
0.559055 -0.00787402 0
0.566929 -0.00787402 0
0.574803 -0.00787402 0
0.582677 -0.00787402 0
0.590551 -0.00787402 0
0.598425 -0.00787402 0
0.606299 -0.00787402 0
0.614173 -0.00787402 0
0.622047 -0.00787402 0
0.629921 -0.00787402 0
0.637795 -0.00787402 0
0.645669 -0.00787402 0
0.653543 -0.00787402 0
0.661417 -0.00787402 0
0.669291 -0.00787402 0
0.677165 -0.00787402 0
0.685039 -0.00787402 0
0.692913 -0.00787402 0
0.700787 -0.00787402 0
0.708661 -0.00787402 0
0.716535 -0.00787402 0
0.724409 -0.00787402 0
0.732283 -0.00787402 0
0.740157 -0.00787402 0
0.748031 -0.00787402 0
0.755906 -0.00787402 0
0.76378 -0.00787402 0
0.771654 -0.00787402 0
0.779528 -0.00787402 0
0.787402 -0.00787402 0
0.795276 -0.00787402 0
0.80315 -0.00787402 0
0.811024 -0.00787402 0
0.818898 -0.00787402 0
0.826772 -0.00787402 0
0.834646 -0.00787402 0
0.84252 -0.00787402 0
0.850394 -0.00787402 0
0.858268 -0.00787402 0
0.866142 -0.00787402 0
0.874016 -0.00787402 0
0.88189 -0.00787402 0
0.889764 -0.00787402 0
0.897638 -0.00787402 0
0.905512 -0.00787402 0
0.913386 -0.00787402 0
0.92126 -0.00787402 0
0.929134 -0.00787402 0
0.937008 -0.00787402 0
0.944882 -0.00787402 0
0.952756 -0.00787402 0
0.96063 -0.00787402 0
0.968504 -0.00787402 0
0.976378 -0.00787402 0
0.984252 -0.00787402 0
0.992126 -0.00787402 0
1 -0.00787402 0
0 0 0
0.00787402 0 0
0.015748 0 0
0.023622 0 0
0.0314961 0 0
0.0393701 0 0
0.0472441 0 0
0.0551181 0 0
0.0629921 0 0
0.0708661 0 0
0.0787402 0 0
0.0866142 0 0
0.0944882 0 0
0.102362 0 0
0.110236 0 0
0.11811 0 0
0.125984 0 0
0.133858 0 0
0.141732 0 0
0.149606 0 0
0.15748 0 0
0.165354 0 0
0.173228 0 0
0.181102 0 0
0.188976 0 0
0.19685 0 0
0.204724 0 0
0.212598 0 0
0.220472 0 0
0.228346 0 0
0.23622 0 0
0.244094 0 0
0.251969 0 0
0.259843 0 0
0.267717 0 0
0.275591 0 0
0.283465 0 0
0.291339 0 0
0.299213 0 0
0.307087 0 0
0.314961 0 0
0.322835 0 0
0.330709 0 0
0.338583 0 0
0.346457 0 0
0.354331 0 0
0.362205 0 0
0.370079 0 0
0.377953 0 0
0.385827 0 0
0.393701 0 0
0.401575 0 0
0.409449 0 0
0.417323 0 0
0.425197 0 0
0.433071 0 0
0.440945 0 0
0.448819 0 0
0.456693 0 0
0.464567 0 0
0.472441 0 0
0.480315 0 0
0.488189 0 0
0.496063 0 0
0.503937 0 0
0.511811 0 0
0.519685 0 0
0.527559 0 0
0.535433 0 0
0.543307 0 0
0.551181 0 0
0.559055 0 0
0.566929 0 0
0.574803 0 0
0.582677 0 0
0.590551 0 0
0.598425 0 0
0.606299 0 0
0.614173 0 0
0.622047 0 0
0.629921 0 0
0.637795 0 0
0.645669 0 0
0.653543 0 0
0.661417 0 0
0.669291 0 0
0.677165 0 0
0.685039 0 0
0.692913 0 0
0.700787 0 0
0.708661 0 0
0.716535 0 0
0.724409 0 0
0.732283 0 0
0.740157 0 0
0.748031 0 0
0.755906 0 0
0.76378 0 0
0.771654 0 0
0.779528 0 0
0.787402 0 0
0.795276 0 0
0.80315 0 0
0.811024 0 0
0.818898 0 0
0.826772 0 0
0.834646 0 0
0.84252 0 0
0.850394 0 0
0.858268 0 0
0.866142 0 0
0.874016 0 0
0.88189 0 0
0.889764 0 0
0.897638 0 0
0.905512 0 0
0.913386 0 0
0.92126 0 0
0.929134 0 0
0.937008 0 0
0.944882 0 0
0.952756 0 0
0.96063 0 0
0.968504 0 0
0.976378 0 0
0.984252 0 0
0.992126 0 0
1 0 0
0 0.00787402 0
0.00787402 0.00787402 0
0.015748 0.00787402 0
0.023622 0.00787402 0
0.0314961 0.00787402 0
0.0393701 0.00787402 0
0.0472441 0.00787402 0
0.0551181 0.00787402 0
0.0629921 0.00787402 0
0.0708661 0.00787402 0
0.0787402 0.00787402 0
0.0866142 0.00787402 0
0.0944882 0.00787402 0
0.102362 0.00787402 0
0.110236 0.00787402 0
0.11811 0.00787402 0
0.125984 0.00787402 0
0.133858 0.00787402 0
0.141732 0.00787402 0
0.149606 0.00787402 0
0.15748 0.00787402 0
0.165354 0.00787402 0
0.173228 0.00787402 0
0.181102 0.00787402 0
0.188976 0.00787402 0
0.19685 0.00787402 0
0.204724 0.00787402 0
0.212598 0.00787402 0
0.220472 0.00787402 0
0.228346 0.00787402 0
0.23622 0.00787402 0
0.244094 0.00787402 0
0.251969 0.00787402 0
0.259843 0.00787402 0
0.267717 0.00787402 0
0.275591 0.00787402 0
0.283465 0.00787402 0
0.291339 0.00787402 0
0.299213 0.00787402 0
0.307087 0.00787402 0
0.314961 0.00787402 0
0.322835 0.00787402 0
0.330709 0.00787402 0
0.338583 0.00787402 0
0.346457 0.00787402 0
0.354331 0.00787402 0
0.362205 0.00787402 0
0.370079 0.00787402 0
0.377953 0.00787402 0
0.385827 0.00787402 0
0.393701 0.00787402 0
0.401575 0.00787402 0
0.409449 0.00787402 0
0.417323 0.00787402 0
0.425197 0.00787402 0
0.433071 0.00787402 0
0.440945 0.00787402 0
0.448819 0.00787402 0
0.456693 0.00787402 0
0.464567 0.00787402 0
0.472441 0.00787402 0
0.480315 0.00787402 0
0.488189 0.00787402 0
0.496063 0.00787402 0
0.503937 0.00787402 0
0.511811 0.00787402 0
0.519685 0.00787402 0
0.527559 0.00787402 0
0.535433 0.00787402 0
0.543307 0.00787402 0
0.551181 0.00787402 0
0.559055 0.00787402 0
0.566929 0.00787402 0
0.574803 0.00787402 0
0.582677 0.00787402 0
0.590551 0.00787402 0
0.598425 0.00787402 0
0.606299 0.00787402 0
0.614173 0.00787402 0
0.622047 0.00787402 0
0.629921 0.00787402 0
0.637795 0.00787402 0
0.645669 0.00787402 0
0.653543 0.00787402 0
0.661417 0.00787402 0
0.669291 0.00787402 0
0.677165 0.00787402 0
0.685039 0.00787402 0
0.692913 0.00787402 0
0.700787 0.00787402 0
0.708661 0.00787402 0
0.716535 0.00787402 0
0.724409 0.00787402 0
0.732283 0.00787402 0
0.740157 0.00787402 0
0.748031 0.00787402 0
0.755906 0.00787402 0
0.76378 0.00787402 0
0.771654 0.00787402 0
0.779528 0.00787402 0
0.787402 0.00787402 0
0.795276 0.00787402 0
0.80315 0.00787402 0
0.811024 0.00787402 0
0.818898 0.00787402 0
0.826772 0.00787402 0
0.834646 0.00787402 0
0.84252 0.00787402 0
0.850394 0.00787402 0
0.858268 0.00787402 0
0.866142 0.00787402 0
0.874016 0.00787402 0
0.88189 0.00787402 0
0.889764 0.00787402 0
0.897638 0.00787402 0
0.905512 0.00787402 0
0.913386 0.00787402 0
0.92126 0.00787402 0
0.929134 0.00787402 0
0.937008 0.00787402 0
0.944882 0.00787402 0
0.952756 0.00787402 0
0.96063 0.00787402 0
0.968504 0.00787402 0
0.976378 0.00787402 0
0.984252 0.00787402 0
0.992126 0.00787402 0
1 0.00787402 0
0 0.015748 0
0.00787402 0.015748 0
0.015748 0.015748 0
0.023622 0.015748 0
0.0314961 0.015748 0
0.0393701 0.015748 0
0.0472441 0.015748 0
0.0551181 0.015748 0
0.0629921 0.015748 0
0.0708661 0.015748 0
0.0787402 0.015748 0
0.0866142 0.015748 0
0.0944882 0.015748 0
0.102362 0.015748 0
0.110236 0.015748 0
0.11811 0.015748 0
0.125984 0.015748 0
0.133858 0.015748 0
0.141732 0.015748 0
0.149606 0.015748 0
0.15748 0.015748 0
0.165354 0.015748 0
0.173228 0.015748 0
0.181102 0.015748 0
0.188976 0.015748 0
0.19685 0.015748 0
0.204724 0.015748 0
0.212598 0.015748 0
0.220472 0.015748 0
0.228346 0.015748 0
0.23622 0.015748 0
0.244094 0.015748 0
0.251969 0.015748 0
0.259843 0.015748 0
0.267717 0.015748 0
0.275591 0.015748 0
0.283465 0.015748 0
0.291339 0.015748 0
0.299213 0.015748 0
0.307087 0.015748 0
0.314961 0.015748 0
0.322835 0.015748 0
0.330709 0.015748 0
0.338583 0.015748 0
0.346457 0.015748 0
0.354331 0.015748 0
0.362205 0.015748 0
0.370079 0.015748 0
0.377953 0.015748 0
0.385827 0.015748 0
0.393701 0.015748 0
0.401575 0.015748 0
0.409449 0.015748 0
0.417323 0.015748 0
0.425197 0.015748 0
0.433071 0.015748 0
0.440945 0.015748 0
0.448819 0.015748 0
0.456693 0.015748 0
0.464567 0.015748 0
0.472441 0.015748 0
0.480315 0.015748 0
0.488189 0.015748 0
0.496063 0.015748 0
0.503937 0.015748 0
0.511811 0.015748 0
0.519685 0.015748 0
0.527559 0.015748 0
0.535433 0.015748 0
0.543307 0.015748 0
0.551181 0.015748 0
0.559055 0.015748 0
0.566929 0.015748 0
0.574803 0.015748 0
0.582677 0.015748 0
0.590551 0.015748 0
0.598425 0.015748 0
0.606299 0.015748 0
0.614173 0.015748 0
0.622047 0.015748 0
0.629921 0.015748 0
0.637795 0.015748 0
0.645669 0.015748 0
0.653543 0.015748 0
0.661417 0.015748 0
0.669291 0.015748 0
0.677165 0.015748 0
0.685039 0.015748 0
0.692913 0.015748 0
0.700787 0.015748 0
0.708661 0.015748 0
0.716535 0.015748 0
0.724409 0.015748 0
0.732283 0.015748 0
0.740157 0.015748 0
0.748031 0.015748 0
0.755906 0.015748 0
0.76378 0.015748 0
0.771654 0.015748 0
0.779528 0.015748 0
0.787402 0.015748 0
0.795276 0.015748 0
0.80315 0.015748 0
0.811024 0.015748 0
0.818898 0.015748 0
0.826772 0.015748 0
0.834646 0.015748 0
0.84252 0.015748 0
0.850394 0.015748 0
0.858268 0.015748 0
0.866142 0.015748 0
0.874016 0.015748 0
0.88189 0.015748 0
0.889764 0.015748 0
0.897638 0.015748 0
0.905512 0.015748 0
0.913386 0.015748 0
0.92126 0.015748 0
0.929134 0.015748 0
0.937008 0.015748 0
0.944882 0.015748 0
0.952756 0.015748 0
0.96063 0.015748 0
0.968504 0.015748 0
0.976378 0.015748 0
[...]
POINT_DATA 4352
SCALARS u double
LOOKUP_TABLE default
0
0
0
0
0
0
0
0
0
0
0
0
0
0
0
0
0
0
0
0
0
0
0
0
0
0
0
0
0
0
0
0
0
0
0
0
0
0
0
0
0
0
0
0
0
0
0
0
0
0
0
0
0
0
0
0
0
0
0
0
0
0
0
0
0
0
0
0
0
0
0
0
0
0
0
0
0
0
0
0
0
0
0
0
0
0
0
0
0
0
0
0
0
0
0
0
0
0
0
0
0
0
0
0
0
0
0
0
0
0
0
0
0
0
0
0
0
0
0
0
0
0
0
0
0
0
0
0
0
0.00232735
0.00464901
0.00695929
0.00925255
0.0115232
0.0137656
0.0159743
0.0181439
0.0202691
0.0223448
0.0243657
0.026327
0.0282239
0.0300518
0.031806
0.0334825
0.035077
0.0365857
0.0380048
0.0393309
0.0405608
0.0416915
0.0427201
0.0436441
0.0444614
0.0451698
0.0457677
0.0462536
0.0466264
0.046885
0.0470289
0.0470577
0.0469713
0.04677
0.0464542
0.0460248
0.0454827
0.0448293
0.0440662
0.0431953
0.0422187
0.0411387
0.0399581
0.0386797
0.0373067
0.0358423
0.0342902
0.0326543
0.0309384
0.0291468
0.0272838
0.0253541
0.0233624
0.0213135
0.0192124
0.0170643
0.0148745
0.0126482
0.010391
0.0081084
0.00580593
0.00348925
0.00116403
-0.00116403
-0.00348925
-0.00580593
-0.0081084
-0.010391
-0.0126482
-0.0148745
-0.0170643
-0.0192124
-0.0213135
-0.0233624
-0.0253541
-0.0272838
-0.0291468
-0.0309384
-0.0326543
-0.0342902
-0.0358423
-0.0373067
-0.0386797
-0.0399581
-0.0411387
-0.0422187
-0.0431953
-0.0440662
-0.0448293
-0.0454827
-0.0460248
-0.0464542
-0.04677
-0.0469713
-0.0470577
-0.0470289
-0.046885
-0.0466264
-0.0462536
-0.0457677
-0.0451698
-0.0444614
-0.0436441
-0.0427201
-0.0416915
-0.0405608
-0.0393309
-0.0380048
-0.0365857
-0.035077
-0.0334825
-0.031806
-0.0300518
-0.0282239
-0.026327
-0.0243657
-0.0223448
-0.0202691
-0.0181439
-0.0159743
-0.0137656
-0.0115232
-0.00925255
-0.00695929
-0.00464901
-0.00232735
0
0
0.00466041
0.00930941
0.0139356
0.0185277
0.0230745
0.0275648
0.0319877
0.0363323
0.0405879
0.0447443
0.0487911
0.0527185
0.056517
0.0601771
0.0636899
0.0670469
0.0702399
0.0732609
0.0761027
0.0787582
0.081221
0.083485
0.0855447
0.0873951
0.0890316
0.0904502
0.0916475
0.0926205
0.0933669
0.0938847
0.0941728
0.0942305
0.0940576
0.0936544
0.0930221
0.0921622
0.0910767
0.0897684
0.0882403
0.0864964
0.0845407
0.0823782
0.080014
0.0774541
0.0747046
0.0717723
0.0686644
0.0653884
0.0619525
0.0583649
0.0546345
0.0507703
0.046782
0.0426791
0.0384719
0.0341704
0.0297854
0.0253274
0.0208075
0.0162367
0.0116261
0.00698704
0.00233092
-0.00233092
-0.00698704
-0.0116261
-0.0162367
-0.0208075
-0.0253274
-0.0297854
-0.0341704
-0.0384719
-0.0426791
-0.046782
-0.0507703
-0.0546345
-0.0583649
-0.0619525
-0.0653884
-0.0686644
-0.0717723
-0.0747046
-0.0774541
-0.080014
-0.0823782
-0.0845407
-0.0864964
-0.0882403
-0.0897684
-0.0910767
-0.0921622
-0.0930221
-0.0936544
-0.0940576
-0.0942305
-0.0941728
-0.0938847
-0.0933669
-0.0926205
-0.0916475
-0.0904502
-0.0890316
-0.0873951
-0.0855447
-0.083485
-0.081221
-0.0787582
-0.0761027
-0.0732609
-0.0702399
-0.0670469
-0.0636899
-0.0601771
-0.056517
-0.0527185
-0.0487911
-0.0447443
-0.0405879
-0.0363323
-0.0319877
-0.0275648
-0.0230745
-0.0185277
-0.0139356
-0.00930941
-0.00466041
0
0
0.00699289
0.0139687
0.0209103
0.0278007
0.0346231
0.0413607
0.0479972
0.0545162
0.0609018
0.0671383
0.0732106
0.0791036
0.0848031
0.0902951
0.0955661
0.100603
0.105394
0.109927
0.114191
0.118176
0.121871
0.125268
0.128359
0.131135
0.133591
0.13572
0.137516
0.138976
0.140096
0.140873
0.141305
0.141392
0.141132
0.140528
0.139579
0.138288
0.13666
0.134697
0.132404
0.129787
0.126852
0.123608
0.12006
0.116219
0.112094
0.107694
0.10303
0.0981147
0.0929591
0.0875759
0.0819785
0.0761804
0.0701959
0.0640396
0.0577266
0.0512724
0.0446926
0.0380035
0.0312214
0.0243629
0.0174448
0.010484
0.00349752
-0.00349752
-0.010484
-0.0174448
-0.0243629
-0.0312214
-0.0380035
-0.0446926
-0.0512724
-0.0577266
-0.0640396
-0.0701959
-0.0761804
-0.0819785
-0.0875759
-0.0929591
-0.0981147
-0.10303
-0.107694
-0.112094
-0.116219
-0.12006
-0.123608
-0.126852
-0.129787
-0.132404
-0.134697
-0.13666
-0.138288
-0.139579
-0.140528
-0.141132
-0.141392
-0.141305
-0.140873
-0.140096
-0.138976
-0.137516
-0.13572
-0.133591
-0.131135
-0.128359
-0.125268
-0.121871
-0.118176
-0.114191
-0.109927
-0.105394
-0.100603
-0.0955661
-0.0902951
-0.0848031
-0.0791036
-0.0732106
-0.0671383
-0.0609018
-0.0545162
-0.0479972
-0.0413607
-0.0346231
-0.0278007
-0.0209103
-0.0139687
-0.00699289
0
0
0.00931858
0.0186144
0.0278646
0.0370466
0.046138
0.0551165
0.0639601
0.0726471
0.0811564
0.0894671
0.0975588
0.105412
0.113007
0.120325
0.127349
0.134062
0.140446
0.146487
0.152169
0.157479
0.162403
0.16693
0.171048
0.174748
0.178021
0.180857
0.183251
0.185197
0.186689
0.187725
0.188301
0.188416
0.18807
0.187264
0.186
0.18428
0.18211
0.179494
0.176438
0.172951
0.169041
0.164717
0.15999
0.154871
0.149374
0.14351
0.137296
0.130746
0.123875
0.116702
0.109243
0.101516
0.0935416
0.0853379
0.0769253
0.0683245
0.0595565
0.0506427
0.041605
0.0324655
0.0232466
0.0139707
0.00466072
-0.00466072
-0.0139707
-0.0232466
-0.0324655
-0.041605
-0.0506427
-0.0595565
-0.0683245
-0.0769253
-0.0853379
-0.0935416
-0.101516
-0.109243
-0.116702
-0.123875
-0.130746
-0.137296
-0.14351
-0.149374
-0.154871
-0.15999
-0.164717
-0.169041
-0.172951
-0.176438
-0.179494
-0.18211
-0.18428
-0.186
-0.187264
-0.18807
-0.188416
-0.188301
-0.187725
-0.186689
-0.185197
-0.183251
-0.180857
-0.178021
-0.174748
-0.171048
-0.16693
-0.162403
-0.157479
-0.152169
-0.146487
-0.140446
-0.134062
-0.127349
-0.120325
-0.113007
-0.105412
-0.0975588
-0.0894671
-0.0811564
-0.0726471
-0.0639601
-0.0551165
-0.046138
-0.0370466
-0.0278646
-0.0186144
-0.00931858
0
0
0.0116313
0.0232341
0.0347801
0.0462409
0.0575886
0.0687954
0.0798338
0.0906768
0.101298
0.111671
0.121771
0.131573
0.141053
0.150188
0.158955
0.167333
0.175302
0.182842
0.189934
0.196562
0.202709
0.208359
0.2135
0.218118
0.222202
0.225743
0.228731
0.231159
0.233022
0.234314
0.235033
0.235177
0.234746
0.23374
0.232162
0.230015
0.227306
0.224041
0.220227
0.215875
0.210994
0.205597
0.199696
0.193307
0.186445
0.179127
0.17137
0.163194
0.154619
0.145665
0.136355
0.126711
0.116757
0.106517
0.0960167
0.0852814
0.0743373
0.0632113
0.0519306
0.0405229
0.029016
0.017438
0.00581742
-0.00581742
-0.017438
-0.029016
-0.0405229
-0.0519306
-0.0632113
-0.0743373
-0.0852814
-0.0960167
-0.106517
-0.116757
-0.126711
-0.136355
-0.145665
-0.154619
-0.163194
-0.17137
-0.179127
-0.186445
-0.193307
-0.199696
-0.205597
-0.210994
-0.215875
-0.220227
-0.224041
-0.227306
-0.230015
-0.232162
-0.23374
-0.234746
-0.235177
-0.235033
-0.234314
-0.233022
-0.231159
-0.228731
-0.225743
-0.222202
-0.218118
-0.2135
-0.208359
-0.202709
-0.196562
-0.189934
-0.182842
-0.175302
-0.167333
-0.158955
-0.150188
-0.141053
-0.131573
-0.121771
-0.111671
-0.101298
-0.0906768
-0.0798338
-0.0687954
-0.0575886
-0.0462409
-0.0347801
-0.0232341
-0.0116313
0
0
0.0139249
0.0278156
0.0416384
0.0553592
0.0689445
0.0823611
0.0955762
0.108557
0.121273
0.133692
0.145783
0.157518
0.168867
0.179804
0.1903
0.20033
0.20987
0.218897
0.227388
0.235322
0.242681
0.249445
0.2556
0.261128
0.266018
0.270257
0.273834
0.276741
0.278971
0.280519
0.28138
0.281552
0.281035
0.279831
0.277942
0.275372
0.272129
0.26822
0.263654
0.258443
0.2526
0.246138
0.239075
0.231426
0.22321
0.214449
0.205163
0.195375
0.185108
0.174389
0.163243
0.151697
0.13978
0.127521
0.11495
0.102098
0.0889959
0.075676
0.0621709
0.0485136
0.0347376
0.0208766
0.00696456
-0.00696456
-0.0208766
-0.0347376
-0.0485136
-0.0621709
-0.075676
-0.0889959
-0.102098
-0.11495
-0.127521
-0.13978
-0.151697
-0.163243
-0.174389
-0.185108
-0.195375
-0.205163
-0.214449
-0.22321
-0.231426
-0.239075
-0.246138
-0.2526
-0.258443
-0.263654
-0.26822
-0.272129
-0.275372
-0.277942
-0.279831
-0.281035
-0.281552
-0.28138
-0.280519
-0.278971
-0.276741
-0.273834
-0.270257
-0.266018
-0.261128
-0.2556
-0.249445
-0.242681
-0.235322
-0.227388
-0.218897
-0.20987
-0.20033
-0.1903
-0.179804
-0.168867
-0.157518
-0.145783
-0.133692
-0.121273
-0.108557
-0.0955762
-0.0823611
-0.0689445
-0.0553592
-0.0416384
-0.0278156
-0.0139249
0
0
0.0161932
0.0323469
0.0484213
0.0643773
0.0801757
0.0957779
0.111146
0.126242
0.141028
0.15547
0.169532
0.183178
0.196376
0.209094
0.2213
0.232964
0.244058
0.254555
0.26443
0.273656
0.282214
0.29008
0.297237
0.303667
0.309353
0.314282
0.318442
0.321823
0.324416
0.326216
0.327217
0.327417
0.326816
0.325416
0.323219
0.320231
0.316459
0.311913
0.306604
0.300544
0.293749
0.286235
0.27802
0.269125
0.259572
0.249383
0.238584
0.227201
0.215263
0.202797
0.189835
0.176409
0.162551
0.148295
0.133676
0.11873
0.103493
0.0880037
0.0722986
0.0564166
0.0403964
0.0242775
0.0080991
-0.0080991
-0.0242775
-0.0403964
-0.0564166
-0.0722986
-0.0880037
-0.103493
-0.11873
-0.133676
-0.148295
-0.162551
-0.176409
-0.189835
-0.202797
-0.215263
-0.227201
-0.238584
-0.249383
-0.259572
-0.269125
-0.27802
-0.286235
-0.293749
-0.300544
-0.306604
-0.311913
-0.316459
-0.320231
-0.323219
-0.325416
-0.326816
-0.327417
-0.327217
-0.326216
-0.324416
-0.321823
-0.318442
-0.314282
-0.309353
-0.303667
-0.297237
-0.29008
-0.282214
-0.273656
-0.26443
-0.254555
-0.244058
-0.232964
-0.2213
-0.209094
-0.196376
-0.183178
-0.169532
-0.15547
-0.141028
-0.126242
-0.111146
-0.0957779
-0.0801757
-0.0643773
-0.0484213
-0.0323469
-0.0161932
0
0
0.0184305
0.0368158
0.0551111
0.0732715
0.0912525
0.10901
0.126501
0.143683
0.160513
0.17695
0.192954
0.208485
0.223507
0.237982
0.251874
0.26515
0.277777
0.289724
0.300962
0.311464
0.321204
0.330157
0.338303
0.34562
0.352092
0.357702
0.362437
0.366285
0.369237
0.371285
0.372424
0.372652
0.371968
0.370374
0.367874
0.364473
0.36018
0.355006
0.348963
0.342066
0.334332
0.32578
0.316431
0.306307
0.295434
0.283837
0.271546
0.258591
0.245003
0.230815
0.216062
0.200781
0.185008
0.168783
0.152144
0.135133
0.117792
0.100162
0.0822872
0.0642109
0.0459775
0.0276316
0.00921805
-0.00921805
-0.0276316
-0.0459775
-0.0642109
-0.0822872
-0.100162
-0.117792
-0.135133
-0.152144
-0.168783
-0.185008
-0.200781
-0.216062
-0.230815
-0.245003
-0.258591
-0.271546
-0.283837
-0.295434
-0.306307
-0.316431
-0.32578
-0.334332
-0.342066
-0.348963
-0.355006
-0.36018
-0.364473
-0.367874
-0.370374
-0.371968
-0.372652
-0.372424
-0.371285
-0.369237
-0.366285
-0.362437
-0.357702
-0.352092
-0.34562
-0.338303
-0.330157
-0.321204
-0.311464
-0.300962
-0.289724
-0.277777
-0.26515
-0.251874
-0.237982
-0.223507
-0.208485
-0.192954
-0.17695
-0.160513
-0.143683
-0.126501
-0.10901
-0.0912525
-0.0732715
-0.0551111
-0.0368158
-0.0184305
0
0
0.0206306
0.0412107
0.06169
0.0820183
0.102146
0.122024
0.141603
0.160835
0.179674
0.198073
0.215988
0.233374
0.250188
0.266391
0.281942
0.296802
0.310937
0.32431
0.33689
0.348645
0.359548
0.36957
0.378688
0.386879
0.394124
0.400404
0.405704
0.410011
0.413315
0.415607
0.416883
0.417138
0.416372
0.414588
0.411789
0.407982
0.403177
0.397385
0.390621
0.382901
0.374243
0.36467
0.354205
0.342873
0.330701
0.317721
0.303962
0.28946
0.27425
0.258369
0.241855
0.224749
0.207094
0.188931
0.170307
0.151265
0.131853
0.112119
0.0921103
0.0718761
0.0514661
0.0309301
0.0103185
-0.0103185
-0.0309301
-0.0514661
-0.0718761
-0.0921103
-0.112119
-0.131853
-0.151265
-0.170307
-0.188931
-0.207094
-0.224749
-0.241855
-0.258369
-0.27425
-0.28946
-0.303962
-0.317721
-0.330701
-0.342873
-0.354205
-0.36467
-0.374243
-0.382901
-0.390621
-0.397385
-0.403177
-0.407982
-0.411789
-0.414588
-0.416372
-0.417138
-0.416883
-0.415607
-0.413315
-0.410011
-0.405704
-0.400404
-0.394124
-0.386879
-0.378688
-0.36957
-0.359548
-0.348645
-0.33689
-0.32431
-0.310937
-0.296802
-0.281942
-0.266391
-0.250188
-0.233374
-0.215988
-0.198073
-0.179674
-0.160835
-0.141603
-0.122024
-0.102146
-0.0820183
-0.06169
-0.0412107
-0.0206306
0
0
0.0227879
0.0455201
0.0681408
0.0905948
0.112827
0.134783
0.15641
0.177653
0.198462
0.218785
0.238573
0.257777
0.27635
0.294247
0.311424
0.327839
0.343451
0.358223
0.372118
0.385103
0.397145
0.408215
0.418287
0.427335
0.435337
0.442273
0.448128
0.452885
0.456535
0.459067
0.460476
0.460758
0.459912
0.457941
0.454849
0.450644
0.445337
0.438939
0.431468
0.42294
0.413378
0.402803
0.391244
0.378726
0.365282
0.350944
0.335747
0.319729
0.302928
0.285386
0.267145
0.248251
0.228749
0.208688
0.188115
0.167083
0.145641
0.123843
0.101742
0.0793921
0.0568479
0.0341645
0.0113974
-0.0113974
-0.0341645
-0.0568479
-0.0793921
-0.101742
-0.123843
-0.145641
-0.167083
-0.188115
-0.208688
-0.228749
-0.248251
-0.267145
-0.285386
-0.302928
-0.319729
-0.335747
-0.350944
-0.365282
-0.378726
-0.391244
-0.402803
-0.413378
-0.42294
-0.431468
-0.438939
-0.445337
-0.450644
-0.454849
-0.457941
-0.459912
-0.460758
-0.460476
-0.459067
-0.456535
-0.452885
-0.448128
-0.442273
-0.435337
-0.427335
-0.418287
-0.408215
-0.397145
-0.385103
-0.372118
-0.358223
-0.343451
-0.327839
-0.311424
-0.294247
-0.27635
-0.257777
-0.238573
-0.218785
-0.198462
-0.177653
-0.15641
-0.134783
-0.112827
-0.0905948
-0.0681408
-0.0455201
-0.0227879
0
0
0.0248968
0.0497326
0.0744467
0.0989786
0.123268
0.147256
0.170884
0.194094
0.216828
0.239032
0.260651
0.281632
0.301924
0.321477
0.340244
0.358177
0.375234
0.391373
0.406555
0.420741
0.433897
0.445992
0.456996
0.466881
0.475623
0.483202
0.489598
0.494796
0.498783
0.50155
0.503089
0.503397
0.502473
0.500319
0.496942
0.492348
0.486549
0.479559
0.471396
0.46208
0.451632
0.44008
0.42745
0.413774
0.399086
0.383421
0.366818
0.349317
0.330962
0.311796
0.291867
0.271225
0.249918
0.228
0.205524
0.182545
0.159119
0.135304
0.111158
0.0867392
0.0621086
0.0373261
0.0124522
-0.0124522
-0.0373261
-0.0621086
-0.0867392
-0.111158
-0.135304
-0.159119
-0.182545
-0.205524
-0.228
-0.249918
-0.271225
-0.291867
-0.311796
-0.330962
-0.349317
-0.366818
-0.383421
-0.399086
-0.413774
-0.42745
-0.44008
-0.451632
-0.46208
-0.471396
-0.479559
-0.486549
-0.492348
-0.496942
-0.500319
-0.502473
-0.503397
-0.503089
-0.50155
-0.498783
-0.494796
-0.489598
-0.483202
-0.475623
-0.466881
-0.456996
-0.445992
-0.433897
-0.420741
-0.406555
-0.391373
-0.375234
-0.358177
-0.340244
-0.321477
-0.301924
-0.281632
-0.260651
-0.239032
-0.216828
-0.194094
-0.170884
-0.147256
-0.123268
-0.0989786
-0.0744467
-0.0497326
-0.0248968
0
0
0.0269516
0.0538372
0.0805911
0.107148
0.133442
0.15941
0.184988
0.210113
0.234724
0.25876
0.282164
0.304876
0.326843
0.34801
0.368325
0.387739
0.406204
0.423675
0.440109
0.455466
0.469709
0.482802
0.494713
0.505414
0.514878
0.523082
0.530006
0.535634
0.53995
0.542945
0.544611
0.544944
0.543944
0.541613
0.537956
0.532983
0.526706
0.519139
0.510302
0.500217
0.488907
0.476401
0.462729
0.447925
0.432024
0.415066
0.397093
0.378148
0.358277
0.33753
0.315956
0.29361
0.270545
0.246818
0.222486
0.197611
0.172252
0.146471
0.120332
0.0938981
0.0672347
0.0404068
0.0134799
-0.0134799
-0.0404068
-0.0672347
-0.0938981
-0.120332
-0.146471
-0.172252
-0.197611
-0.222486
-0.246818
-0.270545
-0.29361
-0.315956
-0.33753
-0.358277
-0.378148
-0.397093
-0.415066
-0.432024
-0.447925
-0.462729
-0.476401
-0.488907
-0.500217
-0.510302
-0.519139
-0.526706
-0.532983
-0.537956
-0.541613
-0.543944
-0.544944
-0.544611
-0.542945
-0.53995
-0.535634
-0.530006
-0.523082
-0.514878
-0.505414
-0.494713
-0.482802
-0.469709
-0.455466
-0.440109
-0.423675
-0.406204
-0.387739
-0.368325
-0.34801
-0.326843
-0.304876
-0.282164
-0.25876
-0.234724
-0.210113
-0.184988
-0.15941
-0.133442
-0.107148
-0.0805911
-0.0538372
-0.0269516
0
0
0.028947
0.0578232
0.0865579
0.115081
0.143322
0.171213
0.198684
0.225669
0.252103
0.277919
0.303055
0.327449
0.351042
0.373776
0.395596
0.416447
0.436279
0.455043
0.472694
0.489188
0.504485
0.518548
0.531341
0.542835
0.552999
0.561811
0.569248
0.575291
0.579927
0.583144
0.584933
0.585291
0.584217
0.581713
0.577786
0.572444
0.565702
0.557576
0.548085
0.537252
0.525105
0.511673
0.496989
0.481088
0.464011
0.445797
0.426493
0.406145
0.384804
0.36252
0.339349
0.315348
0.290576
0.265092
0.238959
0.212242
0.185005
0.157315
0.129241
0.10085
0.0722127
0.0433984
0.014478
-0.014478
-0.0433984
-0.0722127
-0.10085
-0.129241
-0.157315
-0.185005
-0.212242
-0.238959
-0.265092
-0.290576
-0.315348
-0.339349
-0.36252
-0.384804
-0.406145
-0.426493
-0.445797
-0.464011
-0.481088
-0.496989
-0.511673
-0.525105
-0.537252
-0.548085
-0.557576
-0.565702
-0.572444
-0.577786
-0.581713
-0.584217
-0.585291
-0.584933
-0.583144
-0.579927
-0.575291
-0.569248
-0.561811
-0.552999
-0.542835
-0.531341
-0.518548
-0.504485
-0.489188
-0.472694
-0.455043
-0.436279
-0.416447
-0.395596
-0.373776
-0.351042
-0.327449
-0.303055
-0.277919
-0.252103
-0.225669
-0.198684
-0.171213
-0.143322
-0.115081
-0.0865579
-0.0578232
-0.028947
0
0
0.0308779
0.0616803
0.0923317
0.122757
0.152882
0.182633
0.211937
0.240723
0.268919
0.296457
0.32327
0.349291
0.374458
0.398709
0.421983
0.444225
0.46538
0.485397
0.504225
0.521819
0.538137
0.553137
0.566784
0.579044
0.589887
0.599286
0.607219
0.613665
0.61861
0.622042
0.623951
0.624333
0.623187
0.620516
0.616327
0.610629
0.603437
0.594768
0.584644
0.573089
0.560132
0.545804
0.53014
0.513179
0.494962
0.475534
0.454942
0.433237
0.410472
0.386702
0.361985
0.336383
0.309958
0.282774
0.254899
0.226399
0.197346
0.167809
0.137862
0.107577
0.0770296
0.0462933
0.0154437
-0.0154437
-0.0462933
-0.0770296
-0.107577
-0.137862
-0.167809
-0.197346
-0.226399
-0.254899
-0.282774
-0.309958
-0.336383
-0.361985
-0.386702
-0.410472
-0.433237
-0.454942
-0.475534
-0.494962
-0.513179
-0.53014
-0.545804
-0.560132
-0.573089
-0.584644
-0.594768
-0.603437
-0.610629
-0.616327
-0.620516
-0.623187
-0.624333
-0.623951
-0.622042
-0.61861
-0.613665
-0.607219
-0.599286
-0.589887
-0.579044
-0.566784
-0.553137
-0.538137
-0.521819
-0.504225
-0.485397
-0.46538
-0.444225
-0.421983
-0.398709
-0.374458
-0.349291
-0.32327
-0.296457
-0.268919
-0.240723
-0.211937
-0.182633
-0.152882
-0.122757
-0.0923317
-0.0616803
-0.0308779
0
0
0.0327392
0.0653983
0.0978974
0.130157
0.162098
0.193642
0.224713
0.255233
0.285129
0.314327
0.342756
0.370346
0.39703
0.422742
0.44742
0.471003
0.493433
0.514656
0.534619
0.553274
0.570575
0.58648
0.600949
0.613948
0.625444
0.63541
0.643821
0.650656
0.6559
0.659538
0.661562
0.661967
0.660752
0.65792
0.653478
0.647437
0.639811
0.63062
0.619886
0.607634
0.593896
0.578704
0.562096
0.544113
0.524798
0.504199
0.482366
0.459352
0.435214
0.410012
0.383806
0.35666
0.328642
0.29982
0.270264
0.240046
0.209241
0.177924
0.146172
0.114062
0.0816728
0.0490838
0.0163746
-0.0163746
-0.0490838
-0.0816728
-0.114062
-0.146172
-0.177924
-0.209241
-0.240046
-0.270264
-0.29982
-0.328642
-0.35666
-0.383806
-0.410012
-0.435214
-0.459352
-0.482366
-0.504199
-0.524798
-0.544113
-0.562096
-0.578704
-0.593896
-0.607634
-0.619886
-0.63062
-0.639811
-0.647437
-0.653478
-0.65792
-0.660752
-0.661967
-0.661562
-0.659538
-0.6559
-0.650656
-0.643821
-0.63541
-0.625444
-0.613948
-0.600949
-0.58648
-0.570575
-0.553274
-0.534619
-0.514656
-0.493433
-0.471003
-0.44742
-0.422742
-0.39703
-0.370346
-0.342756
-0.314327
-0.285129
-0.255233
-0.224713
-0.193642
-0.162098
-0.130157
-0.0978974
-0.0653983
-0.0327392
0
0
0.034526
0.0689676
0.10324
0.137261
0.170945
0.204211
0.236977
0.269163
0.300691
0.331482
0.361463
0.390559
0.418699
0.445815
0.471839
0.496709
0.520364
0.542745
0.563797
0.58347
0.601716
0.618488
0.633748
0.647456
0.65958
0.670089
0.678959
0.686168
0.691697
0.695534
0.697668
0.698095
0.696814
0.693828
0.689143
0.682773
0.674731
0.665038
0.653718
0.640798
0.62631
0.610289
0.592774
0.573809
0.55344
0.531717
0.508692
0.484422
0.458967
0.432389
0.404753
0.376126
0.346579
0.316183
0.285014
0.253147
0.220661
0.187635
0.15415
0.120287
0.0861303
0.0517627
0.0172683
-0.0172683
-0.0517627
-0.0861303
-0.120287
-0.15415
-0.187635
-0.220661
-0.253147
-0.285014
-0.316183
-0.346579
-0.376126
-0.404753
-0.432389
-0.458967
-0.484422
-0.508692
-0.531717
-0.55344
-0.573809
-0.592774
-0.610289
-0.62631
-0.640798
-0.653718
-0.665038
-0.674731
-0.682773
-0.689143
-0.693828
-0.696814
-0.698095
-0.697668
-0.695534
-0.691697
-0.686168
-0.678959
-0.670089
-0.65958
-0.647456
-0.633748
-0.618488
-0.601716
-0.58347
-0.563797
-0.542745
-0.520364
-0.496709
-0.471839
-0.445815
-0.418699
-0.390559
-0.361463
-0.331482
-0.300691
-0.269163
-0.236977
-0.204211
-0.170945
-0.137261
-0.10324
-0.0689676
-0.034526
0
0
0.0362338
0.0723789
0.108347
0.14405
0.1794
0.214311
0.248698
0.282476
0.315563