# vtk DataFile Version 3.0
Jacobi solution
ASCII
DATASET STRUCTURED_GRID
DIMENSIONS 128 34 1
POINTS 4352 float
0 0.496063 0
0.00787402 0.496063 0
0.015748 0.496063 0
0.023622 0.496063 0
0.0314961 0.496063 0
0.0393701 0.496063 0
0.0472441 0.496063 0
0.0551181 0.496063 0
0.0629921 0.496063 0
0.0708661 0.496063 0
0.0787402 0.496063 0
0.0866142 0.496063 0
0.0944882 0.496063 0
0.102362 0.496063 0
0.110236 0.496063 0
0.11811 0.496063 0
0.125984 0.496063 0
0.133858 0.496063 0
0.141732 0.496063 0
0.149606 0.496063 0
0.15748 0.496063 0
0.165354 0.496063 0
0.173228 0.496063 0
0.181102 0.496063 0
0.188976 0.496063 0
0.19685 0.496063 0
0.204724 0.496063 0
0.212598 0.496063 0
0.220472 0.496063 0
0.228346 0.496063 0
0.23622 0.496063 0
0.244094 0.496063 0
0.251969 0.496063 0
0.259843 0.496063 0
0.267717 0.496063 0
0.275591 0.496063 0
0.283465 0.496063 0
0.291339 0.496063 0
0.299213 0.496063 0
0.307087 0.496063 0
0.314961 0.496063 0
0.322835 0.496063 0
0.330709 0.496063 0
0.338583 0.496063 0
0.346457 0.496063 0
0.354331 0.496063 0
0.362205 0.496063 0
0.370079 0.496063 0
0.377953 0.496063 0
0.385827 0.496063 0
0.393701 0.496063 0
0.401575 0.496063 0
0.409449 0.496063 0
0.417323 0.496063 0
0.425197 0.496063 0
0.433071 0.496063 0
0.440945 0.496063 0
0.448819 0.496063 0
0.456693 0.496063 0
0.464567 0.496063 0
0.472441 0.496063 0
0.480315 0.496063 0
0.488189 0.496063 0
0.496063 0.496063 0
0.503937 0.496063 0
0.511811 0.496063 0
0.519685 0.496063 0
0.527559 0.496063 0
0.535433 0.496063 0
0.543307 0.496063 0
0.551181 0.496063 0
0.559055 0.496063 0
0.566929 0.496063 0
0.574803 0.496063 0
0.582677 0.496063 0
0.590551 0.496063 0
0.598425 0.496063 0
0.606299 0.496063 0
0.614173 0.496063 0
0.622047 0.496063 0
0.629921 0.496063 0
0.637795 0.496063 0
0.645669 0.496063 0
0.653543 0.496063 0
0.661417 0.496063 0
0.669291 0.496063 0
0.677165 0.496063 0
0.685039 0.496063 0
0.692913 0.496063 0
0.700787 0.496063 0
0.708661 0.496063 0
0.716535 0.496063 0
0.724409 0.496063 0
0.732283 0.496063 0
0.740157 0.496063 0
0.748031 0.496063 0
0.755906 0.496063 0
0.76378 0.496063 0
0.771654 0.496063 0
0.779528 0.496063 0
0.787402 0.496063 0
0.795276 0.496063 0
0.80315 0.496063 0
0.811024 0.496063 0
0.818898 0.496063 0
0.826772 0.496063 0
0.834646 0.496063 0
0.84252 0.496063 0
0.850394 0.496063 0
0.858268 0.496063 0
0.866142 0.496063 0
0.874016 0.496063 0
0.88189 0.496063 0
0.889764 0.496063 0
0.897638 0.496063 0
0.905512 0.496063 0
0.913386 0.496063 0
0.92126 0.496063 0
0.929134 0.496063 0
0.937008 0.496063 0
0.944882 0.496063 0
0.952756 0.496063 0
0.96063 0.496063 0
0.968504 0.496063 0
0.976378 0.496063 0
0.984252 0.496063 0
0.992126 0.496063 0
1 0.496063 0
0 0.503937 0
0.00787402 0.503937 0
0.015748 0.503937 0
0.023622 0.503937 0
0.0314961 0.503937 0
0.0393701 0.503937 0
0.0472441 0.503937 0
0.0551181 0.503937 0
0.0629921 0.503937 0
0.0708661 0.503937 0
0.0787402 0.503937 0
0.0866142 0.503937 0
0.0944882 0.503937 0
0.102362 0.503937 0
0.110236 0.503937 0
0.11811 0.503937 0
0.125984 0.503937 0
0.133858 0.503937 0
0.141732 0.503937 0
0.149606 0.503937 0
0.15748 0.503937 0
0.165354 0.503937 0
0.173228 0.503937 0
0.181102 0.503937 0
0.188976 0.503937 0
0.19685 0.503937 0
0.204724 0.503937 0
0.212598 0.503937 0
0.220472 0.503937 0
0.228346 0.503937 0
0.23622 0.503937 0
0.244094 0.503937 0
0.251969 0.503937 0
0.259843 0.503937 0
0.267717 0.503937 0
0.275591 0.503937 0
0.283465 0.503937 0
0.291339 0.503937 0
0.299213 0.503937 0
0.307087 0.503937 0
0.314961 0.503937 0
0.322835 0.503937 0
0.330709 0.503937 0
0.338583 0.503937 0
0.346457 0.503937 0
0.354331 0.503937 0
0.362205 0.503937 0
0.370079 0.503937 0
0.377953 0.503937 0
0.385827 0.503937 0
0.393701 0.503937 0
0.401575 0.503937 0
0.409449 0.503937 0
0.417323 0.503937 0
0.425197 0.503937 0
0.433071 0.503937 0
0.440945 0.503937 0
0.448819 0.503937 0
0.456693 0.503937 0
0.464567 0.503937 0
0.472441 0.503937 0
0.480315 0.503937 0
0.488189 0.503937 0
0.496063 0.503937 0
0.503937 0.503937 0
0.511811 0.503937 0
0.519685 0.503937 0
0.527559 0.503937 0
0.535433 0.503937 0
0.543307 0.503937 0
0.551181 0.503937 0
0.559055 0.503937 0
0.566929 0.503937 0
0.574803 0.503937 0
0.582677 0.503937 0
0.590551 0.503937 0
0.598425 0.503937 0
0.606299 0.503937 0
0.614173 0.503937 0
0.622047 0.503937 0
0.629921 0.503937 0
0.637795 0.503937 0
0.645669 0.503937 0
0.653543 0.503937 0
0.661417 0.503937 0
0.669291 0.503937 0
0.677165 0.503937 0
0.685039 0.503937 0
0.692913 0.503937 0
0.700787 0.503937 0
0.708661 0.503937 0
0.716535 0.503937 0
0.724409 0.503937 0
0.732283 0.503937 0
0.740157 0.503937 0
0.748031 0.503937 0
0.755906 0.503937 0
0.76378 0.503937 0
0.771654 0.503937 0
0.779528 0.503937 0
0.787402 0.503937 0
0.795276 0.503937 0
0.80315 0.503937 0
0.811024 0.503937 0
0.818898 0.503937 0
0.826772 0.503937 0
0.834646 0.503937 0
0.84252 0.503937 0
0.850394 0.503937 0
0.858268 0.503937 0
0.866142 0.503937 0
0.874016 0.503937 0
0.88189 0.503937 0
0.889764 0.503937 0
0.897638 0.503937 0
0.905512 0.503937 0
0.913386 0.503937 0
0.92126 0.503937 0
0.929134 0.503937 0
0.937008 0.503937 0
0.944882 0.503937 0
0.952756 0.503937 0
0.96063 0.503937 0
0.968504 0.503937 0
0.976378 0.503937 0
0.984252 0.503937 0
0.992126 0.503937 0
1 0.503937 0
0 0.511811 0
0.00787402 0.511811 0
0.015748 0.511811 0
0.023622 0.511811 0
0.0314961 0.511811 0
0.0393701 0.511811 0
0.0472441 0.511811 0
0.0551181 0.511811 0
0.0629921 0.511811 0
0.0708661 0.511811 0
0.0787402 0.511811 0
0.0866142 0.511811 0
0.0944882 0.511811 0
0.102362 0.511811 0
0.110236 0.511811 0
0.11811 0.511811 0
0.125984 0.511811 0
0.133858 0.511811 0
0.141732 0.511811 0
0.149606 0.511811 0
0.15748 0.511811 0
0.165354 0.511811 0
0.173228 0.511811 0
0.181102 0.511811 0
0.188976 0.511811 0
0.19685 0.511811 0
0.204724 0.511811 0
0.212598 0.511811 0
0.220472 0.511811 0
0.228346 0.511811 0
0.23622 0.511811 0
0.244094 0.511811 0
0.251969 0.511811 0
0.259843 0.511811 0
0.267717 0.511811 0
0.275591 0.511811 0
0.283465 0.511811 0
0.291339 0.511811 0
0.299213 0.511811 0
0.307087 0.511811 0
0.314961 0.511811 0
0.322835 0.511811 0
0.330709 0.511811 0
0.338583 0.511811 0
0.346457 0.511811 0
0.354331 0.511811 0
0.362205 0.511811 0
0.370079 0.511811 0
0.377953 0.511811 0
0.385827 0.511811 0
0.393701 0.511811 0
0.401575 0.511811 0
0.409449 0.511811 0
0.417323 0.511811 0
0.425197 0.511811 0
0.433071 0.511811 0
0.440945 0.511811 0
0.448819 0.511811 0
0.456693 0.511811 0
0.464567 0.511811 0
0.472441 0.511811 0
0.480315 0.511811 0
0.488189 0.511811 0
0.496063 0.511811 0
0.503937 0.511811 0
0.511811 0.511811 0
0.519685 0.511811 0
0.527559 0.511811 0
0.535433 0.511811 0
0.543307 0.511811 0
0.551181 0.511811 0
0.559055 0.511811 0
0.566929 0.511811 0
0.574803 0.511811 0
0.582677 0.511811 0
0.590551 0.511811 0
0.598425 0.511811 0
0.606299 0.511811 0
0.614173 0.511811 0
0.622047 0.511811 0
0.629921 0.511811 0
0.637795 0.511811 0
0.645669 0.511811 0
0.653543 0.511811 0
0.661417 0.511811 0
0.669291 0.511811 0
0.677165 0.511811 0
0.685039 0.511811 0
0.692913 0.511811 0
0.700787 0.511811 0
0.708661 0.511811 0
0.716535 0.511811 0
0.724409 0.511811 0
0.732283 0.511811 0
0.740157 0.511811 0
0.748031 0.511811 0
0.755906 0.511811 0
0.76378 0.511811 0
0.771654 0.511811 0
0.779528 0.511811 0
0.787402 0.511811 0
0.795276 0.511811 0
0.80315 0.511811 0
0.811024 0.511811 0
0.818898 0.511811 0
0.826772 0.511811 0
0.834646 0.511811 0
0.84252 0.511811 0
0.850394 0.511811 0
0.858268 0.511811 0
0.866142 0.511811 0
0.874016 0.511811 0
0.88189 0.511811 0
0.889764 0.511811 0
0.897638 0.511811 0
0.905512 0.511811 0
0.913386 0.511811 0
0.92126 0.511811 0
0.929134 0.511811 0
0.937008 0.511811 0
0.944882 0.511811 0
0.952756 0.511811 0
0.96063 0.511811 0
0.968504 0.511811 0
0.976378 0.511811 0
0.984252 0.511811 0
0.992126 0.511811 0
1 0.511811 0
0 0.519685 0
0.00787402 0.519685 0
0.015748 0.519685 0
0.023622 0.519685 0
0.0314961 0.519685 0
0.0393701 0.519685 0
0.0472441 0.519685 0
0.0551181 0.519685 0
0.0629921 0.519685 0
0.0708661 0.519685 0
0.0787402 0.519685 0
0.0866142 0.519685 0
0.0944882 0.519685 0
0.102362 0.519685 0
0.110236 0.519685 0
0.11811 0.519685 0
0.125984 0.519685 0
0.133858 0.519685 0
0.141732 0.519685 0
0.149606 0.519685 0
0.15748 0.519685 0
0.165354 0.519685 0
0.173228 0.519685 0
0.181102 0.519685 0
0.188976 0.519685 0
0.19685 0.519685 0
0.204724 0.519685 0
0.212598 0.519685 0
0.220472 0.519685 0
0.228346 0.519685 0
0.23622 0.519685 0
0.244094 0.519685 0
0.251969 0.519685 0
0.259843 0.519685 0
0.267717 0.519685 0
0.275591 0.519685 0
0.283465 0.519685 0
0.291339 0.519685 0
0.299213 0.519685 0
0.307087 0.519685 0
0.314961 0.519685 0
0.322835 0.519685 0
0.330709 0.519685 0
0.338583 0.519685 0
0.346457 0.519685 0
0.354331 0.519685 0
0.362205 0.519685 0
0.370079 0.519685 0
0.377953 0.519685 0
0.385827 0.519685 0
0.393701 0.519685 0
0.401575 0.519685 0
0.409449 0.519685 0
0.417323 0.519685 0
0.425197 0.519685 0
0.433071 0.519685 0
0.440945 0.519685 0
0.448819 0.519685 0
0.456693 0.519685 0
0.464567 0.519685 0
0.472441 0.519685 0
0.480315 0.519685 0
0.488189 0.519685 0
0.496063 0.519685 0
0.503937 0.519685 0
0.511811 0.519685 0
0.519685 0.519685 0
0.527559 0.519685 0
0.535433 0.519685 0
0.543307 0.519685 0
0.551181 0.519685 0
0.559055 0.519685 0
0.566929 0.519685 0
0.574803 0.519685 0
0.582677 0.519685 0
0.590551 0.519685 0
0.598425 0.519685 0
0.606299 0.519685 0
0.614173 0.519685 0
0.622047 0.519685 0
0.629921 0.519685 0
0.637795 0.519685 0
0.645669 0.519685 0
0.653543 0.519685 0
0.661417 0.519685 0
0.669291 0.519685 0
0.677165 0.519685 0
0.685039 0.519685 0
0.692913 0.519685 0
0.700787 0.519685 0
0.708661 0.519685 0
0.716535 0.519685 0
0.724409 0.519685 0
0.732283 0.519685 0
0.740157 0.519685 0
0.748031 0.519685 0
0.755906 0.519685 0
0.76378 0.519685 0
0.771654 0.519685 0
0.779528 0.519685 0
0.787402 0.519685 0
0.795276 0.519685 0
0.80315 0.519685 0
0.811024 0.519685 0
0.818898 0.519685 0
0.826772 0.519685 0
0.834646 0.519685 0
0.84252 0.519685 0
0.850394 0.519685 0
0.858268 0.519685 0
0.866142 0.519685 0
0.874016 0.519685 0
[...]
POINT_DATA 4352
SCALARS u double
LOOKUP_TABLE default
0
0.00122827
0.00245354
0.0036728
0.00488307
0.0060814
0.00726484
0.0084305
0.00957553
0.0106971
0.0117926
0.0128591
0.0138942
0.0148953
0.0158599
0.0167858
0.0176705
0.018512
0.0193082
0.0200572
0.0207571
0.0214062
0.0220029
0.0225457
0.0230334
0.0234647
0.0238386
0.0241541
0.0244106
0.0246073
0.0247438
0.0248197
0.0248349
0.0247893
0.0246831
0.0245164
0.0242898
0.0240037
0.0236589
0.0232561
0.0227965
0.0222811
0.0217111
0.0210881
0.0204134
0.0196888
0.0189159
0.0180968
0.0172334
0.0163279
0.0153823
0.0143992
0.0133808
0.0123296
0.0112483
0.0101394
0.00900577
0.00785007
0.00667516
0.00548391
0.00427924
0.00306411
0.00184147
0.000614324
-0.000614324
-0.00184147
-0.00306411
-0.00427924
-0.00548391
-0.00667516
-0.00785007
-0.00900577
-0.0101394
-0.0112483
-0.0123296
-0.0133808
-0.0143992
-0.0153823
-0.0163279
-0.0172334
-0.0180968
-0.0189159
-0.0196888
-0.0204134
-0.0210881
-0.0217111
-0.0222811
-0.0227965
-0.0232561
-0.0236589
-0.0240037
-0.0242898
-0.0245164
-0.0246831
-0.0247893
-0.0248349
-0.0248197
-0.0247438
-0.0246073
-0.0244106
-0.0241541
-0.0238386
-0.0234647
-0.0230334
-0.0225457
-0.0220029
-0.0214062
-0.0207571
-0.0200572
-0.0193082
-0.018512
-0.0176705
-0.0167858
-0.0158599
-0.0148953
-0.0138942
-0.0128591
-0.0117926
-0.0106971
-0.00957553
-0.0084305
-0.00726484
-0.0060814
-0.00488307
-0.0036728
-0.00245354
-0.00122827
0
0
-0.00122827
-0.00245354
-0.0036728
-0.00488307
-0.0060814
-0.00726484
-0.0084305
-0.00957554
-0.0106971
-0.0117926
-0.0128591
-0.0138942
-0.0148953
-0.01586
-0.0167858
-0.0176705
-0.018512
-0.0193083
-0.0200572
-0.0207571
-0.0214062
-0.0220029
-0.0225457
-0.0230334
-0.0234647
-0.0238386
-0.0241541
-0.0244106
-0.0246073
-0.0247438
-0.0248197
-0.0248349
-0.0247893
-0.0246831
-0.0245164
-0.0242898
-0.0240037
-0.0236589
-0.0232562
-0.0227965
-0.0222811
-0.0217112
-0.0210881
-0.0204134
-0.0196888
-0.0189159
-0.0180968
-0.0172334
-0.0163279
-0.0153823
-0.0143992
-0.0133808
-0.0123296
-0.0112483
-0.0101394
-0.00900577
-0.00785007
-0.00667516
-0.00548391
-0.00427925
-0.00306411
-0.00184147
-0.000614324
0.000614324
0.00184147
0.00306411
0.00427925
0.00548391
0.00667516
0.00785007
0.00900577
0.0101394
0.0112483
0.0123296
0.0133808
0.0143992
0.0153823
0.0163279
0.0172334
0.0180968
0.0189159
0.0196888
0.0204134
0.0210881
0.0217112
0.0222811
0.0227965
0.0232562
0.0236589
0.0240037
0.0242898
0.0245164
0.0246831
0.0247893
0.0248349
0.0248197
0.0247438
0.0246073
0.0244106
0.0241541
0.0238386
0.0234647
0.0230334
0.0225457
0.0220029
0.0214062
0.0207571
0.0200572
0.0193083
0.018512
0.0176705
0.0167858
0.01586
0.0148953
0.0138942
0.0128591
0.0117926
0.0106971
0.00957554
0.0084305
0.00726484
0.0060814
0.00488307
0.0036728
0.00245354
0.00122827
0
0
-0.00368183
-0.00735466
-0.0110095
-0.0146374
-0.0182294
-0.0217769
-0.025271
-0.0287034
-0.0320654
-0.035349
-0.0385462
-0.0416489
-0.0446498
-0.0475414
-0.0503166
-0.0529687
-0.0554912
-0.0578779
-0.060123
-0.0622209
-0.0641665
-0.0659552
-0.0675824
-0.0690442
-0.0703371
-0.0714579
-0.0724038
-0.0731725
-0.0737621
-0.0741712
-0.0743988
-0.0744444
-0.0743078
-0.0739893
-0.0734898
-0.0728104
-0.0719528
-0.0709192
-0.069712
-0.0683342
-0.0667892
-0.0650808
-0.063213
-0.0611906
-0.0590185
-0.0567019
-0.0542466
-0.0516585
-0.048944
-0.0461097
-0.0431626
-0.0401098
-0.0369589
-0.0337176
-0.0303937
-0.0269955
-0.0235312
-0.0200093
-0.0164384
-0.0128274
-0.00918488
-0.00551993
-0.00184148
0.00184148
0.00551993
0.00918488
0.0128274
0.0164384
0.0200093
0.0235312
0.0269955
0.0303937
0.0337176
0.0369589
0.0401098
0.0431626
0.0461097
0.048944
0.0516585
0.0542466
0.0567019
0.0590185
0.0611906
0.063213
0.0650808
0.0667892
0.0683342
0.069712
0.0709192
0.0719528
0.0728104
0.0734898
0.0739893
0.0743078
0.0744444
0.0743988
0.0741712
0.0737621
0.0731725
0.0724038
0.0714579
0.0703371
0.0690442
0.0675824
0.0659552
0.0641665
0.0622209
0.060123
0.0578779
0.0554912
0.0529687
0.0503166
0.0475414
0.0446498
0.0416489
0.0385462
0.035349
0.0320654
0.0287034
0.025271
0.0217769
0.0182294
0.0146374
0.0110095
0.00735466
0.00368183
0
0
-0.00612646
-0.0122379
-0.0183194
-0.0243561
-0.0303332
-0.0362361
-0.0420502
-0.0477615
-0.0533559
-0.0588197
-0.0641396
-0.0693025
-0.0742959
-0.0791074
-0.0837253
-0.0881383
-0.0923357
-0.0963071
-0.100043
-0.103534
-0.106771
-0.109747
-0.112455
-0.114888
-0.117039
-0.118904
-0.120478
-0.121757
-0.122738
-0.123419
-0.123797
-0.123873
-0.123646
-0.123116
-0.122285
-0.121154
-0.119727
-0.118007
-0.115999
-0.113706
-0.111135
-0.108292
-0.105185
-0.101819
-0.098205
-0.0943502
-0.0902646
-0.0859581
-0.0814413
-0.0767251
-0.0718212
-0.0667415
-0.0614985
-0.056105
-0.0505742
-0.0449196
-0.0391551
-0.0332948
-0.027353
-0.0213443
-0.0152834
-0.009185
-0.00306417
0.00306417
0.009185
0.0152834
0.0213443
0.027353
0.0332948
0.0391551
0.0449196
0.0505742
0.056105
0.0614985
0.0667415
0.0718212
0.0767251
0.0814413
0.0859581
0.0902646
0.0943502
0.098205
0.101819
0.105185
0.108292
0.111135
0.113706
0.115999
0.118007
0.119727
0.121154
0.122285
0.123116
0.123646
0.123873
0.123797
0.123419
0.122738
0.121757
0.120478
0.118904
0.117039
0.114888
0.112455
0.109747
0.106771
0.103534
0.100043
0.0963071
0.0923357
0.0881383
0.0837253
0.0791074
0.0742959
0.0693025
0.0641396
0.0588197
0.0533559
0.0477615
0.0420502
0.0362361
0.0303332
0.0243561
0.0183194
0.0122379
0.00612646
0
0
-0.00855621
-0.0170915
-0.0255849
-0.0340158
-0.0423634
-0.0506073
-0.0587274
-0.0667038
-0.0745169
-0.0821477
-0.0895774
-0.0967879
-0.103762
-0.110481
-0.116931
-0.123094
-0.128956
-0.134502
-0.13972
-0.144595
-0.149117
-0.153273
-0.157055
-0.160452
-0.163456
-0.166061
-0.168259
-0.170046
-0.171416
-0.172367
-0.172895
-0.173001
-0.172684
-0.171944
-0.170783
-0.169204
-0.167211
-0.164809
-0.162004
-0.158802
-0.155211
-0.151241
-0.146901
-0.142201
-0.137153
-0.13177
-0.126064
-0.120049
-0.113741
-0.107154
-0.100305
-0.0932112
-0.0858888
-0.0783562
-0.0706319
-0.0627348
-0.0546841
-0.0464996
-0.0382013
-0.0298095
-0.0213447
-0.0128278
-0.00427942
0.00427942
0.0128278
0.0213447
0.0298095
0.0382013
0.0464996
0.0546841
0.0627348
0.0706319
0.0783562
0.0858888
0.0932112
0.100305
0.107154
0.113741
0.120049
0.126064
0.13177
0.137153
0.142201
0.146901
0.151241
0.155211
0.158802
0.162004
0.164809
0.167211
0.169204
0.170783
0.171944
0.172684
0.173001
0.172895
0.172367
0.171416
0.170046
0.168259
0.166061
0.163456
0.160452
0.157055
0.153273
0.149117
0.144595
0.13972
0.134502
0.128956
0.123094
0.116931
0.110481
0.103762
0.0967879
0.0895774
0.0821477
0.0745169
0.0667038
0.0587274
0.0506073
0.0423634
0.0340158
0.0255849
0.0170915
0.00855621
0
0
-0.0109652
-0.0219036
-0.0327883
-0.0435929
-0.0542907
-0.0648557
-0.075262
-0.0854841
-0.095497
-0.105276
-0.114798
-0.124038
-0.132976
-0.141587
-0.149852
-0.157751
-0.165263
-0.172371
-0.179058
-0.185306
-0.1911
-0.196427
-0.201273
-0.205627
-0.209477
-0.212815
-0.215632
-0.217922
-0.219678
-0.220896
-0.221574
-0.22171
-0.221303
-0.220354
-0.218867
-0.216843
-0.214289
-0.211211
-0.207616
-0.203512
-0.198911
-0.193823
-0.18826
-0.182237
-0.175768
-0.168869
-0.161557
-0.153849
-0.145764
-0.137323
-0.128546
-0.119455
-0.110071
-0.100417
-0.0905182
-0.0803976
-0.0700803
-0.0595914
-0.0489568
-0.0382023
-0.0273543
-0.0164394
-0.00548428
0.00548428
0.0164394
0.0273543
0.0382023
0.0489568
0.0595914
0.0700803
0.0803976
0.0905182
0.100417
0.110071
0.119455
0.128546
0.137323
0.145764
0.153849
0.161557
0.168869
0.175768
0.182237
0.18826
0.193823
0.198911
0.203512
0.207616
0.211211
0.214289
0.216843
0.218867
0.220354
0.221303
0.22171
0.221574
0.220896
0.219678
0.217922
0.215632
0.212815
0.209477
0.205627
0.201273
0.196427
0.1911
0.185306
0.179058
0.172371
0.165263
0.157751
0.149852
0.141587
0.132976
0.124038
0.114798
0.105276
0.095497
0.0854841
0.075262
0.0648557
0.0542907
0.0435929
0.0327883
0.0219036
0.0109652
0
0
-0.0133476
-0.0266625
-0.0399122
-0.0530642
-0.0660863
-0.0789467
-0.0916139
-0.104057
-0.116245
-0.128149
-0.13974
-0.150988
-0.161867
-0.172349
-0.18241
-0.192025
-0.20117
-0.209822
-0.217961
-0.225566
-0.23262
-0.239104
-0.245003
-0.250303
-0.25499
-0.259053
-0.262482
-0.265269
-0.267406
-0.268889
-0.269715
-0.26988
-0.269384
-0.26823
-0.266419
-0.263956
-0.260847
-0.2571
-0.252724
-0.247729
-0.242128
-0.235934
-0.229163
-0.221832
-0.213957
-0.205559
-0.196657
-0.187275
-0.177434
-0.167159
-0.156475
-0.145408
-0.133985
-0.122235
-0.110185
-0.0978654
-0.0853064
-0.0725387
-0.0595935
-0.0465024
-0.0332975
-0.0200112
-0.00667583
0.00667583
0.0200112
0.0332975
0.0465024
0.0595935
0.0725387
0.0853064
0.0978654
0.110185
0.122235
0.133985
0.145408
0.156475
0.167159
0.177434
0.187275
0.196657
0.205559
0.213957
0.221832
0.229163
0.235934
0.242128
0.247729
0.252724
0.2571
0.260847
0.263956
0.266419
0.26823
0.269384
0.26988
0.269715
0.268889
0.267406
0.265269
0.262482
0.259053
0.25499
0.250303
0.245003
0.239104
0.23262
0.225566
0.217961
0.209822
0.20117
0.192025
0.18241
0.172349
0.161867
0.150988
0.13974
0.128149
0.116245
0.104057
0.0916139
0.0789467
0.0660863
0.0530642
0.0399122
0.0266625
0.0133476
0
0
-0.0156976
-0.0313567
-0.0469391
-0.0624067
-0.0777215
-0.0928461
-0.107744
-0.122377
-0.136712
-0.150711
-0.164342
-0.177571
-0.190365
-0.202693
-0.214526
-0.225833
-0.236588
-0.246763
-0.256335
-0.26528
-0.273575
-0.281201
-0.288139
-0.294371
-0.299884
-0.304662
-0.308695
-0.311972
-0.314486
-0.31623
-0.317201
-0.317395
-0.316812
-0.315455
-0.313325
-0.310428
-0.306772
-0.302365
-0.297218
-0.291344
-0.284757
-0.277473
-0.26951
-0.260887
-0.251626
-0.24175
-0.231281
-0.220247
-0.208673
-0.196589
-0.184024
-0.171009
-0.157575
-0.143755
-0.129584
-0.115096
-0.100326
-0.0853099
-0.0700855
-0.0546896
-0.0391599
-0.0235343
-0.00785118
0.00785118
0.0235343
0.0391599
0.0546896
0.0700855
0.0853099
0.100326
0.115096
0.129584
0.143755
0.157575
0.171009
0.184024
0.196589
0.208673
0.220247
0.231281
0.24175
0.251626
0.260887
0.26951
0.277473
0.284757
0.291344
0.297218
0.302365
0.306772
0.310428
0.313325
0.315455
0.316812
0.317395
0.317201
0.31623
0.314486
0.311972
0.308695
0.304662
0.299884
0.294371
0.288139
0.281201
0.273575
0.26528
0.256335
0.246763
0.236588
0.225833
0.214526
0.202693
0.190365
0.177571
0.164342
0.150711
0.136712
0.122377
0.107744
0.0928461
0.0777215
0.0624067
0.0469391
0.0313567
0.0156976
0
0
-0.0180095
-0.0359748
-0.0538522
-0.0715977
-0.0891681
-0.10652
-0.123612
-0.140401
-0.156846
-0.172908
-0.188546
-0.203723
-0.218402
-0.232546
-0.24612
-0.259093
-0.271432
-0.283106
-0.294088
-0.304349
-0.313867
-0.322615
-0.330575
-0.337726
-0.34405
-0.349532
-0.354158
-0.357918
-0.360803
-0.362804
-0.363917
-0.36414
-0.363472
-0.361914
-0.35947
-0.356147
-0.351953
-0.346897
-0.340992
-0.334253
-0.326695
-0.318338
-0.309203
-0.29931
-0.288685
-0.277354
-0.265344
-0.252684
-0.239406
-0.225543
-0.211127
-0.196195
-0.180782
-0.164927
-0.148669
-0.132047
-0.115101
-0.0978741
-0.0804075
-0.0627442
-0.0449273
-0.0270004
-0.00900748
0.00900748
0.0270004
0.0449273
0.0627442
0.0804075
0.0978741
0.115101
0.132047
0.148669
0.164927
0.180782
0.196195
0.211127
0.225543
0.239406
0.252684
0.265344
0.277354
0.288685
0.29931
0.309203
0.318338
0.326695
0.334253
0.340992
0.346897
0.351953
0.356147
0.35947
0.361914
0.363472
0.36414
0.363917
0.362804
0.360803
0.357918
0.354158
0.349532
0.34405
0.337726
0.330575
0.322615
0.313867
0.304349
0.294088
0.283106
0.271432
0.259093
0.24612
0.232546
0.218402
0.203723
0.188546
0.172908
0.156846
0.140401
0.123612
0.10652
0.0891681
0.0715977
0.0538522
0.0359748
0.0180095
0
0
-0.0202777
-0.0405057
-0.0606346
-0.0806151
-0.100398
-0.119936
-0.13918
-0.158083
-0.1766
-0.194684
-0.212292
-0.229381
-0.245908
-0.261833
-0.277118
-0.291724
-0.305617
-0.318762
-0.331126
-0.342681
-0.353396
-0.363247
-0.372209
-0.38026
-0.387381
-0.393553
-0.398763
-0.402996
-0.406244
-0.408497
-0.409751
-0.410001
-0.409249
-0.407495
-0.404744
-0.401002
-0.396279
-0.390587
-0.383938
-0.37635
-0.367841
-0.358431
-0.348145
-0.337007
-0.325043
-0.312285
-0.298762
-0.284508
-0.269558
-0.253948
-0.237717
-0.220904
-0.203551
-0.185699
-0.167393
-0.148677
-0.129598
-0.110201
-0.0905344
-0.0706465
-0.0505856
-0.030401
-0.0101419
0.0101419
0.030401
0.0505856
0.0706465
0.0905344
0.110201
0.129598
0.148677
0.167393
0.185699
0.203551
0.220904
0.237717
0.253948
0.269558
0.284508
0.298762
0.312285
0.325043
0.337007
0.348145
0.358431
0.367841
0.37635
0.383938
0.390587
0.396279
0.401002
0.404744
0.407495
0.409249
0.410001
0.409751
0.408497
0.406244
0.402996
0.398763
0.393553
0.387381
0.38026
0.372209
0.363247
0.353396
0.342681
0.331126
0.318762
0.305617
0.291724
0.277118
0.261833
0.245908
0.229381
0.212292
0.194684
0.1766
0.158083
0.13918
0.119936
0.100398
0.0806151
0.0606346
0.0405057
0.0202777
0
0
-0.0224966
-0.0449382
-0.0672699
-0.0894369
-0.111385
-0.133061
-0.154411
-0.175383
-0.195925
-0.215989
-0.235524
-0.254482
-0.272818
-0.290486
-0.307443
-0.323648
-0.339061
-0.353644
-0.367362
-0.38018
-0.392069
-0.402998
-0.41294
-0.421872
-0.429772
-0.43662
-0.4424
-0.447097
-0.450699
-0.453199
-0.45459
-0.454868
-0.454033
-0.452088
-0.449035
-0.444884
-0.439644
-0.433329
-0.425953
-0.417534
-0.408094
-0.397655
-0.386243
-0.373885
-0.360613
-0.346459
-0.331456
-0.315642
-0.299056
-0.281738
-0.263731
-0.245078
-0.225825
-0.20602
-0.185711
-0.164947
-0.14378
-0.12226
-0.100442
-0.0783773
-0.0561212
-0.0337278
-0.0112518
0.0112518
0.0337278
0.0561212
0.0783773
0.100442
0.12226
0.14378
0.164947
0.185711
0.20602
0.225825
0.245078
0.263731
0.281738
0.299056
0.315642
0.331456
0.346459
0.360613
0.373885
0.386243
0.397655
0.408094
0.417534
0.425953
0.433329
0.439644
0.444884
0.449035
0.452088
0.454033
0.454868
0.45459
0.453199
0.450699
0.447097
0.4424
0.43662
0.429772
0.421872
0.41294
0.402998
0.392069
0.38018
0.367362
0.353644
0.339061
0.323648
0.307443
0.290486
0.272818
0.254482
0.235524
0.215989
0.195925
0.175383
0.154411
0.133061
0.111385
0.0894369
0.0672699
0.0449382
0.0224966
0
0
-0.0246611
-0.0492618
-0.073742
-0.0980417
-0.122101
-0.145862
-0.169267
-0.192256
-0.214776
-0.236769
-0.258184
-0.278966
-0.299066
-0.318434
-0.337023
-0.354787
-0.371682
-0.387669
-0.402706
-0.416758
-0.42979
-0.44177
-0.45267
-0.462461
-0.471121
-0.478628
-0.484963
-0.490112
-0.494062
-0.496802
-0.498327
-0.498632
-0.497717
-0.495583
-0.492237
-0.487687
-0.481943
-0.47502
-0.466934
-0.457705
-0.447357
-0.435914
-0.423404
-0.409857
-0.395308
-0.379792
-0.363346
-0.346011
-0.327829
-0.308845
-0.289105
-0.268657
-0.247552
-0.225842
-0.203578
-0.180817
-0.157613
-0.134023
-0.110105
-0.0859181
-0.0615207
-0.0369727
-0.0123343
0.0123343
0.0369727
0.0615207
0.0859181
0.110105
0.134023
0.157613
0.180817
0.203578
0.225842
0.247552
0.268657
0.289105
0.308845
0.327829
0.346011
0.363346
0.379792
0.395308
0.409857
0.423404
0.435914
0.447357
0.457705
0.466934
0.47502
0.481943
0.487687
0.492237
0.495583
0.497717
0.498632
0.498327
0.496802
0.494062
0.490112
0.484963
0.478628
0.471121
0.462461
0.45267
0.44177
0.42979
0.416758
0.402706
0.387669
0.371682
0.354787
0.337023
0.318434
0.299066
0.278966
0.258184
0.236769
0.214776
0.192256
0.169267
0.145862
0.122101
0.0980417
0.073742
0.0492618
0.0246611
0
0
-0.0267657
-0.0534659
-0.0800352
-0.106409
-0.132522
-0.158311
-0.183712
-0.208664
-0.233105
-0.256976
-0.280217
-0.302774
-0.324589
-0.34561
-0.365785
-0.385065
-0.403402
-0.420753
-0.437074
-0.452325
-0.466469
-0.479472
-0.491301
-0.501928
-0.511327
-0.519475
-0.526351
-0.531939
-0.536226
-0.5392
-0.540854
-0.541186
-0.540192
-0.537877
-0.534246
-0.529307
-0.523073
-0.515559
-0.506783
-0.496767
-0.485535
-0.473115
-0.459537
-0.444835
-0.429044
-0.412204
-0.394354
-0.37554
-0.355806
-0.335202
-0.313777
-0.291585
-0.268679
-0.245115
-0.220952
-0.196248
-0.171064
-0.145461
-0.119502
-0.0932505
-0.066771
-0.0401281
-0.0133869
0.0133869
0.0401281
0.066771
0.0932505
0.119502
0.145461
0.171064
0.196248
0.220952
0.245115
0.268679
0.291585
0.313777
0.335202
0.355806
0.37554
0.394354
0.412204
0.429044
0.444835
0.459537
0.473115
0.485535
0.496767
0.506783
0.515559
0.523073
0.529307
0.534246
0.537877
0.540192
0.541186
0.540854
0.5392
0.536226
0.531939
0.526351
0.519475
0.511327
0.501928
0.491301
0.479472
0.466469
0.452325
0.437074
0.420753
0.403402
0.385065
0.365785
0.34561
0.324589
0.302774
0.280217
0.256976
0.233105
0.208664
0.183712
0.158311
0.132522
0.106409
0.0800352
0.0534659
0.0267657
0
0
-0.0288054
-0.0575403
-0.0861344
-0.114518
-0.142621
-0.170375
-0.197712
-0.224565
-0.250869
-0.276559
-0.301572
-0.325847
-0.349324
-0.371947
-0.39366
-0.414409
-0.434144
-0.452817
-0.470381
-0.486795
-0.502017
-0.51601
-0.528741
-0.540178
-0.550293
-0.559062
-0.566462
-0.572476
-0.577089
-0.58029
-0.582071
-0.582427
-0.581358
-0.578867
-0.574958
-0.569643
-0.562934
-0.554847
-0.545403
-0.534623
-0.522536
-0.509169
-0.494557
-0.478734
-0.46174
-0.443616
-0.424406
-0.404158
-0.382921
-0.360746
-0.337689
-0.313805
-0.289154
-0.263795
-0.23779
-0.211203
-0.1841
-0.156546
-0.128609
-0.100357
-0.0718593
-0.0431861
-0.0144071
0.0144071
0.0431861
0.0718593
0.100357
0.128609
0.156546
0.1841
0.211203
0.23779
0.263795
0.289154
0.313805
0.337689
0.360746
0.382921
0.404158
0.424406
0.443616
0.46174
0.478734
0.494557
0.509169
0.522536
0.534623
0.545403
0.554847
0.562934
0.569643
0.574958
0.578867
0.581358
0.582427
0.582071
0.58029
0.577089
0.572476
0.566462
0.559062
0.550293
0.540178
0.528741
0.51601
0.502017
0.486795
0.470381
0.452817
0.434144
0.414409
0.39366
0.371947
0.349324
0.325847
0.301572
0.276559
0.250869
0.224565
0.197712
0.170375
0.142621
0.114518
0.0861344
0.0575403
0.0288054
0
0
-0.0307753
-0.0614752
-0.0920247
-0.122349
-0.152374
-0.182026
-0.211232
-0.239922
-0.268025
-0.295471
-0.322195
-0.34813
-0.373213
-0.397383
-0.42058
-0.442748
-0.463833
-0.483783
-0.502548
-0.520084
-0.536347
-0.551298
-0.564899
-0.577118
-0.587925
-0.597293
-0.6052
-0.611625
-0.616553
-0.619973
-0.621876
-0.622257
-0.621115
-0.618453
-0.614277
-0.608598
-0.60143
-0.592791
-0.5827
-0.571184
-0.558269
-0.543989
-0.528377
-0.511473
-0.493316
-0.473953
-0.453429
-0.431796
-0.409107
-0.385416
-0.360782
-0.335265
-0.308928
-0.281834
-0.254051
-0.225646
-0.196689
-0.167251
-0.137403
-0.10722
-0.0767734
-0.0461393
-0.0153923
0.0153923
0.0461393
0.0767734
0.10722
0.137403
0.167251
0.196689
0.225646
0.254051
0.281834
0.308928
0.335265
0.360782
0.385416
0.409107
0.431796
0.453429
0.473953
0.493316
0.511473
0.528377
0.543989
0.558269
0.571184
0.5827
0.592791
0.60143
0.608598
0.614277
0.618453
0.621115
0.622257
0.621876
0.619973
0.616553
0.611625
0.6052
0.597293
0.587925
0.577118
0.564899
0.551298
0.536347
0.520084
0.502548
0.483783
0.463833
0.442748
0.42058
0.397383
0.373213
0.34813
0.322195
0.295471
0.268025
0.239922
0.211232
0.182026
0.152374
0.122349
0.0920247
0.0614752
0.0307753
0
0
-0.0326705
-0.0652611
-0.0976919
-0.129884
-0.161758
-0.193236
-0.224241
-0.254697
-0.284531
-0.313667
-0.342037
-0.369569
-0.396197
-0.421855
-0.446481
-0.470014
-0.492398
-0.513576
-0.533497
-0.552113
-0.569378
-0.585249
-0.599688
-0.61266
-0.624132
-0.634077
-0.64247
-0.649291
-0.654523
-0.658154
-0.660173
-0.660578
-0.659365
-0.656539
-0.652107
-0.646078
-0.638469
-0.629297
-0.618585
-0.606359
-0.59265
-0.57749
-0.560917
-0.542971
-0.523697
-0.503141
-0.481353
-0.458388
-0.434301
-0.409151
-0.383
-0.355912
-0.327952
-0.299191
-0.269697
-0.239542
-0.208802
-0.177551
-0.145865
-0.113823
-0.0815014
-0.0489808
-0.0163403
0.0163403
0.0489808
0.0815014
0.113823
0.145865
0.177551
0.208802
0.239542
0.269697
0.299191
0.327952
0.355912
0.383
0.409151
0.434301
0.458388
0.481353
0.503141
0.523697
0.542971
0.560917
0.57749
0.59265
0.606359
0.618585
0.629297
0.638469
0.646078
0.652107
0.656539
0.659365
0.660578
0.660173
0.658154
0.654523
0.649291
0.64247
0.634077
0.624132
0.61266
0.599688
0.585249
0.569378
0.552113
0.533497
0.513576
0.492398
0.470014
0.446481
0.421855
0.396197
0.369569
0.342037
0.313667
0.284531
0.254697
0.224241
0.193236
0.161758
0.129884
0.0976919
0.0652611
0.0326705
0
0
-0.0344866
-0.0688888
-0.103122
-0.137104
-0.170749
-0.203977
-0.236706
-0.268855
-0.300347
-0.331104